 argument  1 = input.nw
  NWChem w/ OpenMP: maximum threads =    1



============================== echo of input deck ==============================
echo
start adamant
geometry  units angstroms noautosym  noautoz
C         -0.19305        1.82219       -0.88212
C          0.69674        0.94007        0.00000
C         -0.19305        0.05795        0.88212
H          1.35905        0.32766       -0.61241
H          1.35905        1.55248        0.61241
C         -1.07517        0.94007        1.77192
C         -1.95729        1.82219        0.88212
H         -1.68758        0.32766        2.43422
H         -0.46276        1.55248        2.43422
C         -1.07517        2.71199        0.00000
H         -1.68758        3.37430       -0.61241
H         -0.46276        3.37430        0.61241
C         -1.07517        0.94007       -1.77192
H          0.43561        2.45085       -1.51078
C         -1.07517       -0.83185        0.00000
H          0.43561       -0.57071        1.51078
C         -1.95729        0.05795       -0.88212
H         -0.46276       -1.49415       -0.61241
H         -1.68758       -1.49415        0.61241
H         -2.58595       -0.57071       -1.51078
C         -2.84709        0.94007        0.00000
H         -1.68758        1.55248       -2.43422
H         -0.46276        0.32766       -2.43422
H         -3.50940        1.55248       -0.61241
H         -2.58595        2.45085        1.51078
H         -3.50940        0.32766        0.61241
 symmetry c1
end

basis
 *  library 6-31G
end

dft
 xc hfexch
 mult 1
end

tddft
 cis
 nroots 40
 singlet
 notriplet
 civecs
end

task tddft energy


dplot
 civecs adamant.civecs_singlet
 root 1
 LimitXYZ
  -5.0 5.0 50
  -5.0 5.0 50
  -5.0 5.0 50
   gaussian
   output root-1.cube
end
task dplot

================================================================================


                                         
                                         


             Northwest Computational Chemistry Package (NWChem) 7.2.1
             --------------------------------------------------------


                    Environmental Molecular Sciences Laboratory
                       Pacific Northwest National Laboratory
                                Richland, WA 99352

                              Copyright (c) 1994-2022
                       Pacific Northwest National Laboratory
                            Battelle Memorial Institute

             NWChem is an open-source computational chemistry package
                        distributed under the terms of the
                      Educational Community License (ECL) 2.0
             A copy of the license is included with this distribution
                              in the LICENSE.TXT file

                                  ACKNOWLEDGMENT
                                  --------------

            This software and its documentation were developed at the
            EMSL at Pacific Northwest National Laboratory, a multiprogram
            national laboratory, operated for the U.S. Department of Energy
            by Battelle under Contract Number DE-AC05-76RL01830. Support
            for this work was provided by the Department of Energy Office
            of Biological and Environmental Research, Office of Basic
            Energy Sciences, and the Office of Advanced Scientific Computing.


           Job information
           ---------------

    hostname        = cpn-m23-24.compute.cbls.ccr.buffalo.edu
    program         = nwchem
    date            = Sun Mar 24 11:21:31 2024

    compiled        = Wed_Jan_17_15:19:23_2024
    source          = /projects/academic/cyberwksp21/SOFTWARE_NEW_ENV/nwchem
    nwchem branch   = 7.2.1
    nwchem revision = v7.2.0-beta1-968-g8bfd0073a6
    ga revision     = 5.8.0
    use scalapack   = T
    input           = input.nw
    prefix          = adamant.
    data base       = ./adamant.db
    status          = startup
    nproc           =       11
    time left       =     -1s



           Memory information
           ------------------

    heap     =     26214400 doubles =      200.0 Mbytes
    stack    =     26214397 doubles =      200.0 Mbytes
    global   =     52428800 doubles =      400.0 Mbytes (distinct from heap & stack)
    total    =    104857597 doubles =      800.0 Mbytes
    verify   = yes
    hardfail = no 


           Directory information
           ---------------------

  0 permanent = .
  0 scratch   = .




                                NWChem Input Module
                                -------------------



 Scaling coordinates for geometry "geometry" by  1.889725989
 (inverse scale =  0.529177249)



                             Geometry "geometry" -> ""
                             -------------------------

 Output coordinates in angstroms (scale by  1.889725989 to convert to a.u.)

  No.       Tag          Charge          X              Y              Z
 ---- ---------------- ---------- -------------- -------------- --------------
    1 C                    6.0000     0.88212105     0.88211974    -0.88212000
    2 C                    6.0000     1.77191105    -0.00000026    -0.00000000
    3 C                    6.0000     0.88212105    -0.88212026     0.88212000
    4 H                    1.0000     2.43422105    -0.61241026    -0.61241000
    5 H                    1.0000     2.43422105     0.61240974     0.61241000
    6 C                    6.0000     0.00000105    -0.00000026     1.77192000
    7 C                    6.0000    -0.88211895     0.88211974     0.88212000
    8 H                    1.0000    -0.61240895    -0.61241026     2.43422000
    9 H                    1.0000     0.61241105     0.61240974     2.43422000
   10 C                    6.0000     0.00000105     1.77191974    -0.00000000
   11 H                    1.0000    -0.61240895     2.43422974    -0.61241000
   12 H                    1.0000     0.61241105     2.43422974     0.61241000
   13 C                    6.0000     0.00000105    -0.00000026    -1.77192000
   14 H                    1.0000     1.51078105     1.51077974    -1.51078000
   15 C                    6.0000     0.00000105    -1.77192026    -0.00000000
   16 H                    1.0000     1.51078105    -1.51078026     1.51078000
   17 C                    6.0000    -0.88211895    -0.88212026    -0.88212000
   18 H                    1.0000     0.61241105    -2.43422026    -0.61241000
   19 H                    1.0000    -0.61240895    -2.43422026     0.61241000
   20 H                    1.0000    -1.51077895    -1.51078026    -1.51078000
   21 C                    6.0000    -1.77191895    -0.00000026    -0.00000000
   22 H                    1.0000    -0.61240895     0.61240974    -2.43422000
   23 H                    1.0000     0.61241105    -0.61241026    -2.43422000
   24 H                    1.0000    -2.43422895     0.61240974    -0.61241000
   25 H                    1.0000    -1.51077895     1.51077974     1.51078000
   26 H                    1.0000    -2.43422895    -0.61241026     0.61241000

      Atomic Mass 
      ----------- 

      C                 12.000000
      H                  1.007825


 Effective nuclear repulsion energy (a.u.)     599.1399474866

            Nuclear Dipole moment (a.u.) 
            ----------------------------
        X                 Y               Z
 ---------------- ---------------- ----------------
     0.0000000000    -0.0000000000     0.0000000000


            XYZ format geometry
            -------------------
    26
 geometry
 C                     0.88212105     0.88211974    -0.88212000
 C                     1.77191105    -0.00000026    -0.00000000
 C                     0.88212105    -0.88212026     0.88212000
 H                     2.43422105    -0.61241026    -0.61241000
 H                     2.43422105     0.61240974     0.61241000
 C                     0.00000105    -0.00000026     1.77192000
 C                    -0.88211895     0.88211974     0.88212000
 H                    -0.61240895    -0.61241026     2.43422000
 H                     0.61241105     0.61240974     2.43422000
 C                     0.00000105     1.77191974    -0.00000000
 H                    -0.61240895     2.43422974    -0.61241000
 H                     0.61241105     2.43422974     0.61241000
 C                     0.00000105    -0.00000026    -1.77192000
 H                     1.51078105     1.51077974    -1.51078000
 C                     0.00000105    -1.77192026    -0.00000000
 H                     1.51078105    -1.51078026     1.51078000
 C                    -0.88211895    -0.88212026    -0.88212000
 H                     0.61241105    -2.43422026    -0.61241000
 H                    -0.61240895    -2.43422026     0.61241000
 H                    -1.51077895    -1.51078026    -1.51078000
 C                    -1.77191895    -0.00000026    -0.00000000
 H                    -0.61240895     0.61240974    -2.43422000
 H                     0.61241105    -0.61241026    -2.43422000
 H                    -2.43422895     0.61240974    -0.61241000
 H                    -1.51077895     1.51077974     1.51078000
 H                    -2.43422895    -0.61241026     0.61241000

 ==============================================================================
                                internuclear distances
 ------------------------------------------------------------------------------
       center one      |      center two      | atomic units |  angstroms
 ------------------------------------------------------------------------------
    2 C                |   1 C                |     2.89566  |     1.53232
    3 C                |   2 C                |     2.89566  |     1.53232
    4 H                |   2 C                |     2.06036  |     1.09030
    5 H                |   2 C                |     2.06036  |     1.09030
    6 C                |   3 C                |     2.89567  |     1.53232
    7 C                |   6 C                |     2.89567  |     1.53232
    8 H                |   6 C                |     2.06035  |     1.09029
    9 H                |   6 C                |     2.06035  |     1.09029
   10 C                |   1 C                |     2.89567  |     1.53232
   10 C                |   7 C                |     2.89567  |     1.53232
   11 H                |  10 C                |     2.06036  |     1.09030
   12 H                |  10 C                |     2.06036  |     1.09030
   13 C                |   1 C                |     2.89567  |     1.53232
   14 H                |   1 C                |     2.05767  |     1.08887
   15 C                |   3 C                |     2.89567  |     1.53232
   16 H                |   3 C                |     2.05767  |     1.08887
   17 C                |  13 C                |     2.89567  |     1.53232
   17 C                |  15 C                |     2.89567  |     1.53232
   18 H                |  15 C                |     2.06035  |     1.09029
   19 H                |  15 C                |     2.06035  |     1.09029
   20 H                |  17 C                |     2.05767  |     1.08887
   21 C                |   7 C                |     2.89567  |     1.53232
   21 C                |  17 C                |     2.89567  |     1.53232
   22 H                |  13 C                |     2.06035  |     1.09029
   23 H                |  13 C                |     2.06035  |     1.09029
   24 H                |  21 C                |     2.06036  |     1.09030
   25 H                |   7 C                |     2.05767  |     1.08887
   26 H                |  21 C                |     2.06036  |     1.09030
 ------------------------------------------------------------------------------
                         number of included internuclear distances:         28
 ==============================================================================



 ==============================================================================
                                 internuclear angles
 ------------------------------------------------------------------------------
        center 1       |       center 2       |       center 3       |  degrees
 ------------------------------------------------------------------------------
    2 C                |   1 C                |  10 C                |   109.70
    2 C                |   1 C                |  13 C                |   109.70
    2 C                |   1 C                |  14 H                |   109.24
   10 C                |   1 C                |  13 C                |   109.70
   10 C                |   1 C                |  14 H                |   109.24
   13 C                |   1 C                |  14 H                |   109.24
    1 C                |   2 C                |   3 C                |   109.00
    1 C                |   2 C                |   4 H                |   110.66
    1 C                |   2 C                |   5 H                |   110.66
    3 C                |   2 C                |   4 H                |   110.66
    3 C                |   2 C                |   5 H                |   110.66
    4 H                |   2 C                |   5 H                |   105.19
    2 C                |   3 C                |   6 C                |   109.70
    2 C                |   3 C                |  15 C                |   109.70
    2 C                |   3 C                |  16 H                |   109.24
    6 C                |   3 C                |  15 C                |   109.70
    6 C                |   3 C                |  16 H                |   109.24
   15 C                |   3 C                |  16 H                |   109.24
    3 C                |   6 C                |   7 C                |   109.00
    3 C                |   6 C                |   8 H                |   110.65
    3 C                |   6 C                |   9 H                |   110.65
    7 C                |   6 C                |   8 H                |   110.65
    7 C                |   6 C                |   9 H                |   110.65
    8 H                |   6 C                |   9 H                |   105.19
    6 C                |   7 C                |  10 C                |   109.70
    6 C                |   7 C                |  21 C                |   109.70
    6 C                |   7 C                |  25 H                |   109.24
   10 C                |   7 C                |  21 C                |   109.70
   10 C                |   7 C                |  25 H                |   109.24
   21 C                |   7 C                |  25 H                |   109.24
    1 C                |  10 C                |   7 C                |   109.00
    1 C                |  10 C                |  11 H                |   110.66
    1 C                |  10 C                |  12 H                |   110.66
    7 C                |  10 C                |  11 H                |   110.66
    7 C                |  10 C                |  12 H                |   110.66
   11 H                |  10 C                |  12 H                |   105.19
    1 C                |  13 C                |  17 C                |   109.00
    1 C                |  13 C                |  22 H                |   110.65
    1 C                |  13 C                |  23 H                |   110.65
   17 C                |  13 C                |  22 H                |   110.65
   17 C                |  13 C                |  23 H                |   110.65
   22 H                |  13 C                |  23 H                |   105.19
    3 C                |  15 C                |  17 C                |   109.00
    3 C                |  15 C                |  18 H                |   110.65
    3 C                |  15 C                |  19 H                |   110.65
   17 C                |  15 C                |  18 H                |   110.65
   17 C                |  15 C                |  19 H                |   110.65
   18 H                |  15 C                |  19 H                |   105.19
   13 C                |  17 C                |  15 C                |   109.70
   13 C                |  17 C                |  20 H                |   109.24
   13 C                |  17 C                |  21 C                |   109.70
   15 C                |  17 C                |  20 H                |   109.24
   15 C                |  17 C                |  21 C                |   109.70
   20 H                |  17 C                |  21 C                |   109.24
    7 C                |  21 C                |  17 C                |   109.00
    7 C                |  21 C                |  24 H                |   110.66
    7 C                |  21 C                |  26 H                |   110.66
   17 C                |  21 C                |  24 H                |   110.66
   17 C                |  21 C                |  26 H                |   110.66
   24 H                |  21 C                |  26 H                |   105.19
 ------------------------------------------------------------------------------
                            number of included internuclear angles:         60
 ==============================================================================





 Summary of "ao basis" -> "" (cartesian)
 ------------------------------------------------------------------------------
       Tag                 Description            Shells   Functions and Types
 ---------------- ------------------------------  ------  ---------------------
 *                           6-31G                    on all atoms 


  xc_inp: hfexch multiplicative factor not found.
 tddft_input: filename not found; default name will be used

                                 NWChem DFT Module
                                 -----------------


                      Basis "ao basis" -> "ao basis" (cartesian)
                      -----
  C (Carbon)
  ----------
            Exponent  Coefficients 
       -------------- ---------------------------------------------------------
  1 S  3.04752490E+03  0.001835
  1 S  4.57369510E+02  0.014037
  1 S  1.03948690E+02  0.068843
  1 S  2.92101550E+01  0.232184
  1 S  9.28666300E+00  0.467941
  1 S  3.16392700E+00  0.362312

  2 S  7.86827240E+00 -0.119332
  2 S  1.88128850E+00 -0.160854
  2 S  5.44249300E-01  1.143456

  3 P  7.86827240E+00  0.068999
  3 P  1.88128850E+00  0.316424
  3 P  5.44249300E-01  0.744308

  4 S  1.68714400E-01  1.000000

  5 P  1.68714400E-01  1.000000

  H (Hydrogen)
  ------------
            Exponent  Coefficients 
       -------------- ---------------------------------------------------------
  1 S  1.87311370E+01  0.033495
  1 S  2.82539370E+00  0.234727
  1 S  6.40121700E-01  0.813757

  2 S  1.61277800E-01  1.000000



 Summary of "ao basis" -> "ao basis" (cartesian)
 ------------------------------------------------------------------------------
       Tag                 Description            Shells   Functions and Types
 ---------------- ------------------------------  ------  ---------------------
 C                           6-31G                   5        9   3s2p
 H                           6-31G                   2        2   2s




 Summary of "ao basis" -> "ao basis" (cartesian)
 ------------------------------------------------------------------------------
       Tag                 Description            Shells   Functions and Types
 ---------------- ------------------------------  ------  ---------------------
 C                           6-31G                   5        9   3s2p
 H                           6-31G                   2        2   2s


  Caching 1-el integrals 

            General Information
            -------------------
          SCF calculation type: DFT
          Wavefunction type:  closed shell.
          No. of atoms     :    26
          No. of electrons :    76
           Alpha electrons :    38
            Beta electrons :    38
          Charge           :     0
          Spin multiplicity:     1
          Use of symmetry is: off; symmetry adaption is: off
          Maximum number of iterations:  50
          AO basis - number of functions:   122
                     number of shells:    82
          Convergence on energy requested:  1.00D-06
          Convergence on density requested:  1.00D-05
          Convergence on gradient requested:  5.00D-04

              XC Information
              --------------
                     Hartree-Fock (Exact) Exchange  1.000          

          Convergence Information
          -----------------------
          Convergence aids based upon iterative change in 
          total energy or number of iterations. 
          Levelshifting, if invoked, occurs when the 
          HOMO/LUMO gap drops below (HL_TOL):  1.00D-02
          DIIS, if invoked, will attempt to extrapolate 
          using up to (NFOCK): 10 stored Fock matrices.

                    Damping( 0%)  Levelshifting(0.5)       DIIS
                  --------------- ------------------- ---------------
          dE  on:    start            ASAP                start   
          dE off:    2 iters         50 iters            50 iters 


      Screening Tolerance Information
      -------------------------------
          Density screening/tol_rho:  1.00D-10
          AO Gaussian exp screening on grid/accAOfunc:  14
          CD Gaussian exp screening on grid/accCDfunc:  20
          XC Gaussian exp screening on grid/accXCfunc:  20
          Schwarz screening/accCoul:  1.00D-08


      Superposition of Atomic Density Guess
      -------------------------------------

 Sum of atomic energies:        -384.57426211

      Non-variational initial energy
      ------------------------------

 Total energy =    -392.757521
 1-e energy   =   -1704.959901
 2-e energy   =     713.062433
 HOMO         =      -0.302107
 LUMO         =       0.105158

   Time after variat. SCF:      1.4
   Time prior to 1st pass:      1.4
  avail0,avail1,avail0-avail1                197517               197517                    0
  avail0,avail1,avail0-avail1                197517               197517                    0
  avail0,avail1,avail0-avail1                197517               197517                    0
  avail0,avail1,avail0-avail1                197517               197517                    0

 Integral file          = ./adamant.aoints.00
 Record size in doubles =  65536        No. of integs per rec  =  43688
 Max. records in memory =     82        Max. records in file   =    280
 No. of bits per label  =      8        No. of bits per value  =     64


 #quartets = 4.796D+06 #integrals = 2.436D+07 #direct =  0.0% #cached =100.0%


File balance: exchanges=    14  moved=    24  time=   0.0


           Memory utilization after 1st SCF pass: 
           Heap Space remaining (MW):       20.83            20834336
          Stack Space remaining (MW):       26.21            26212828

   convergence    iter        energy       DeltaE   RMS-Dens  Diis-err    time
 ---------------- ----- ----------------- --------- --------- ---------  ------
 d= 0,ls=0.0,diis     1   -387.7760636201 -9.87D+02  5.46D-03  4.47D-01     2.7
 d= 0,ls=0.0,diis     2   -387.8579748382 -8.19D-02  2.71D-03  2.61D-02     2.7
 d= 0,ls=0.0,diis     3   -387.8627322862 -4.76D-03  5.48D-04  4.85D-03     2.8
 d= 0,ls=0.0,diis     4   -387.8633792017 -6.47D-04  8.22D-05  4.57D-05     2.9
 d= 0,ls=0.0,diis     5   -387.8633874062 -8.20D-06  2.29D-05  4.11D-06     3.0
 d= 0,ls=0.0,diis     6   -387.8633879924 -5.86D-07  2.86D-06  4.47D-08     3.1


         Total DFT energy =     -387.863387992375
      One electron energy =    -1712.915074639567
           Coulomb energy =      783.619517785301
    Exchange-Corr. energy =      -57.707778624702
 Nuclear repulsion energy =      599.139947486592

 Numeric. integr. density =        0.000000000000

     Total iterative time =      1.7s



                       DFT Final Molecular Orbital Analysis
                       ------------------------------------

 Vector    1  Occ=2.000000D+00  E=-1.121768D+01
              MO Center= -2.1D-01,  9.2D-02,  3.2D-02, r^2= 2.3D+00
   Bfn.  Coefficient  Atom+Function         Bfn.  Coefficient  Atom+Function  
  ----- ------------  ---------------      ----- ------------  ---------------
    41      0.583120   7 C  s                89      0.520365  17 C  s         
     1      0.451730   1 C  s                19      0.412880   3 C  s         
   104      0.038636  21 C  s                54      0.036189  10 C  s         
    32      0.034799   6 C  s                67      0.033947  13 C  s         
    78      0.032562  15 C  s                10      0.030118   2 C  s         

 Vector    2  Occ=2.000000D+00  E=-1.121768D+01
              MO Center= -8.1D-01,  1.9D-01,  1.6D-01, r^2= 1.7D+00
   Bfn.  Coefficient  Atom+Function         Bfn.  Coefficient  Atom+Function  
  ----- ------------  ---------------      ----- ------------  ---------------
    41      0.758269   7 C  s                89     -0.611537  17 C  s         
     1     -0.168693   1 C  s                19     -0.114732   3 C  s         
    67     -0.027765  13 C  s                78     -0.025842  15 C  s         

 Vector    3  Occ=2.000000D+00  E=-1.121768D+01
              MO Center=  1.9D-01,  1.6D-01, -6.2D-01, r^2= 1.9D+00
   Bfn.  Coefficient  Atom+Function         Bfn.  Coefficient  Atom+Function  
  ----- ------------  ---------------      ----- ------------  ---------------
     1      0.723131   1 C  s                89     -0.568134  17 C  s         
    19      0.283037   3 C  s                41     -0.254448   7 C  s         
    10      0.035807   2 C  s               104     -0.029395  21 C  s         

 Vector    4  Occ=2.000000D+00  E=-1.121768D+01
              MO Center=  8.2D-01, -4.5D-01,  4.3D-01, r^2= 1.3D+00
   Bfn.  Coefficient  Atom+Function         Bfn.  Coefficient  Atom+Function  
  ----- ------------  ---------------      ----- ------------  ---------------
    19      0.851771   3 C  s                 1     -0.483551   1 C  s         
    89     -0.147393  17 C  s                41     -0.097537   7 C  s         
    32      0.026845   6 C  s                78      0.025067  15 C  s         

 Vector    5  Occ=2.000000D+00  E=-1.120948D+01
              MO Center= -2.2D-02,  2.3D-02, -3.5D-07, r^2= 3.2D+00
   Bfn.  Coefficient  Atom+Function         Bfn.  Coefficient  Atom+Function  
  ----- ------------  ---------------      ----- ------------  ---------------
   104      0.540579  21 C  s                10      0.528999   2 C  s         
    54     -0.458586  10 C  s                78     -0.444138  15 C  s         
    32     -0.081646   6 C  s                67     -0.081646  13 C  s         

 Vector    6  Occ=2.000000D+00  E=-1.120947D+01
              MO Center= -3.6D-03,  1.5D-02, -1.6D-07, r^2= 3.2D+00
   Bfn.  Coefficient  Atom+Function         Bfn.  Coefficient  Atom+Function  
  ----- ------------  ---------------      ----- ------------  ---------------
    32      0.568075   6 C  s                67      0.568075  13 C  s         
    54     -0.362992  10 C  s                78     -0.351407  15 C  s         
   104     -0.217158  21 C  s                10     -0.212444   2 C  s         

 Vector    7  Occ=2.000000D+00  E=-1.120943D+01
              MO Center=  1.8D-02,  2.8D-04,  6.8D-05, r^2= 3.2D+00
   Bfn.  Coefficient  Atom+Function         Bfn.  Coefficient  Atom+Function  
  ----- ------------  ---------------      ----- ------------  ---------------
    10      0.707015   2 C  s               104     -0.700018  21 C  s         
    41      0.025793   7 C  s                19     -0.025451   3 C  s         
    89      0.025072  17 C  s         

 Vector    8  Occ=2.000000D+00  E=-1.120943D+01
              MO Center=  4.3D-04, -2.7D-02, -4.0D-05, r^2= 3.2D+00
   Bfn.  Coefficient  Atom+Function         Bfn.  Coefficient  Atom+Function  
  ----- ------------  ---------------      ----- ------------  ---------------
    78     -0.708808  15 C  s                54      0.698145  10 C  s         
     1     -0.025841   1 C  s                89      0.025396  17 C  s         
    41     -0.025170   7 C  s         

 Vector    9  Occ=2.000000D+00  E=-1.120943D+01
              MO Center=  4.6D-06, -1.3D-06, -2.8D-05, r^2= 3.2D+00
   Bfn.  Coefficient  Atom+Function         Bfn.  Coefficient  Atom+Function  
  ----- ------------  ---------------      ----- ------------  ---------------
    32      0.703613   6 C  s                67     -0.703624  13 C  s         
     1      0.025282   1 C  s                19     -0.025293   3 C  s         
    41     -0.025242   7 C  s                89      0.025254  17 C  s         

 Vector   10  Occ=2.000000D+00  E=-1.120936D+01
              MO Center=  7.8D-03, -1.2D-02,  2.0D-07, r^2= 3.2D+00
   Bfn.  Coefficient  Atom+Function         Bfn.  Coefficient  Atom+Function  
  ----- ------------  ---------------      ----- ------------  ---------------
    78      0.408714  15 C  s                10      0.406373   2 C  s         
    32      0.407096   6 C  s                67      0.407096  13 C  s         
    54      0.400715  10 C  s               104      0.401015  21 C  s         
    19     -0.042820   3 C  s                 1     -0.042535   1 C  s         
    89     -0.042627  17 C  s                41     -0.042342   7 C  s         

 Vector   11  Occ=2.000000D+00  E=-1.169638D+00
              MO Center=  1.3D-05, -3.0D-06,  7.8D-12, r^2= 2.9D+00
   Bfn.  Coefficient  Atom+Function         Bfn.  Coefficient  Atom+Function  
  ----- ------------  ---------------      ----- ------------  ---------------
     2      0.137723   1 C  s                20      0.137723   3 C  s         
    42      0.137721   7 C  s                90      0.137721  17 C  s         
     6      0.119171   1 C  s                24      0.119171   3 C  s         
    46      0.119169   7 C  s                94      0.119169  17 C  s         
    11      0.118548   2 C  s                33      0.118546   6 C  s         

 Vector   12  Occ=2.000000D+00  E=-1.040135D+00
              MO Center=  2.0D-01,  2.0D-01, -6.7D-02, r^2= 3.6D+00
   Bfn.  Coefficient  Atom+Function         Bfn.  Coefficient  Atom+Function  
  ----- ------------  ---------------      ----- ------------  ---------------
     6      0.203663   1 C  s                 2      0.200445   1 C  s         
    33     -0.187530   6 C  s                68      0.187530  13 C  s         
    37     -0.168703   6 C  s                72      0.168702  13 C  s         
    24     -0.123056   3 C  s                46     -0.122146   7 C  s         
    20     -0.121111   3 C  s                42     -0.120215   7 C  s         

 Vector   13  Occ=2.000000D+00  E=-1.040135D+00
              MO Center=  2.3D-02, -2.0D-01,  7.9D-02, r^2= 3.6D+00
   Bfn.  Coefficient  Atom+Function         Bfn.  Coefficient  Atom+Function  
  ----- ------------  ---------------      ----- ------------  ---------------
    11      0.197590   2 C  s               105     -0.197589  21 C  s         
    24      0.181679   3 C  s                20      0.178808   3 C  s         
    15      0.177753   2 C  s               109     -0.177752  21 C  s         
    94     -0.151610  17 C  s                90     -0.149215  17 C  s         
    46     -0.106746   7 C  s                10     -0.105988   2 C  s         

 Vector   14  Occ=2.000000D+00  E=-1.040134D+00
              MO Center= -2.3D-01, -4.1D-03, -1.2D-02, r^2= 3.6D+00
   Bfn.  Coefficient  Atom+Function         Bfn.  Coefficient  Atom+Function  
  ----- ------------  ---------------      ----- ------------  ---------------
    55      0.196059  10 C  s                79     -0.196060  15 C  s         
    59      0.176375  10 C  s                83     -0.176376  15 C  s         
    94     -0.173893  17 C  s                90     -0.171145  17 C  s         
    46      0.169221   7 C  s                42      0.166547   7 C  s         
    54     -0.105166  10 C  s                78      0.105167  15 C  s         

 Vector   15  Occ=2.000000D+00  E=-9.091920D-01
              MO Center= -2.4D-07, -1.2D-07, -2.2D-11, r^2= 4.7D+00
   Bfn.  Coefficient  Atom+Function         Bfn.  Coefficient  Atom+Function  
  ----- ------------  ---------------      ----- ------------  ---------------
    37      0.258175   6 C  s                72      0.258175  13 C  s         
    33      0.208545   6 C  s                68      0.208545  13 C  s         
    59     -0.175838  10 C  s                83     -0.175838  15 C  s         
    55     -0.142036  10 C  s                79     -0.142036  15 C  s         
    32     -0.114165   6 C  s                67     -0.114165  13 C  s         

 Vector   16  Occ=2.000000D+00  E=-9.091913D-01
              MO Center= -1.3D-05, -7.0D-08, -3.2D-13, r^2= 4.7D+00
   Bfn.  Coefficient  Atom+Function         Bfn.  Coefficient  Atom+Function  
  ----- ------------  ---------------      ----- ------------  ---------------
    15      0.250577   2 C  s               109      0.250579  21 C  s         
    11      0.202407   2 C  s               105      0.202409  21 C  s         
    59     -0.196596  10 C  s                83     -0.196595  15 C  s         
    55     -0.158803  10 C  s                79     -0.158803  15 C  s         
    10     -0.110804   2 C  s               104     -0.110805  21 C  s         

 Vector   17  Occ=2.000000D+00  E=-7.948014D-01
              MO Center=  3.7D-01,  2.4D-02, -1.5D-02, r^2= 4.6D+00
   Bfn.  Coefficient  Atom+Function         Bfn.  Coefficient  Atom+Function  
  ----- ------------  ---------------      ----- ------------  ---------------
     6      0.270941   1 C  s                24     -0.257565   3 C  s         
    37      0.192518   6 C  s                72     -0.192518  13 C  s         
     2      0.166847   1 C  s                20     -0.158609   3 C  s         
    59     -0.121332  10 C  s                83      0.121331  15 C  s         
    13      0.115854   2 C  py               33      0.116007   6 C  s         

 Vector   18  Occ=2.000000D+00  E=-7.948008D-01
              MO Center= -3.7D-01,  1.8D-02,  2.9D-02, r^2= 4.6D+00
   Bfn.  Coefficient  Atom+Function         Bfn.  Coefficient  Atom+Function  
  ----- ------------  ---------------      ----- ------------  ---------------
    46      0.272043   7 C  s                94     -0.256158  17 C  s         
    59     -0.192646  10 C  s                83      0.192645  15 C  s         
    42      0.167525   7 C  s                90     -0.157743  17 C  s         
    37     -0.121021   6 C  s                72      0.121022  13 C  s         
    55     -0.116084  10 C  s                79      0.116083  15 C  s         

 Vector   19  Occ=2.000000D+00  E=-7.948001D-01
              MO Center= -7.0D-04, -4.2D-02, -1.3D-02, r^2= 4.8D+00
   Bfn.  Coefficient  Atom+Function         Bfn.  Coefficient  Atom+Function  
  ----- ------------  ---------------      ----- ------------  ---------------
    15      0.227368   2 C  s               109     -0.227367  21 C  s         
    94      0.204489  17 C  s                24     -0.198168   3 C  s         
     6     -0.184707   1 C  s                46      0.178385   7 C  s         
    11      0.137005   2 C  s               105     -0.137005  21 C  s         
    90      0.125925  17 C  s                20     -0.122032   3 C  s         

 Vector   20  Occ=2.000000D+00  E=-7.102700D-01
              MO Center=  7.6D-06,  3.4D-06,  2.2D-11, r^2= 5.0D+00
   Bfn.  Coefficient  Atom+Function         Bfn.  Coefficient  Atom+Function  
  ----- ------------  ---------------      ----- ------------  ---------------
    12      0.144739   2 C  px               36      0.144737   6 C  pz        
    57      0.144737  10 C  py               71     -0.144737  13 C  pz        
    81     -0.144737  15 C  py              106     -0.144737  21 C  px        
     6     -0.118194   1 C  s                24     -0.118194   3 C  s         
    46     -0.118193   7 C  s                94     -0.118192  17 C  s         

 Vector   21  Occ=2.000000D+00  E=-6.322630D-01
              MO Center=  2.8D-06,  8.9D-07,  1.2D-10, r^2= 5.7D+00
   Bfn.  Coefficient  Atom+Function         Bfn.  Coefficient  Atom+Function  
  ----- ------------  ---------------      ----- ------------  ---------------
     6      0.201377   1 C  s                24      0.201378   3 C  s         
    46      0.201380   7 C  s                94      0.201380  17 C  s         
    76      0.150025  14 H  s                87      0.150025  16 H  s         
   102      0.150023  20 H  s               119      0.150023  25 H  s         
    15     -0.126424   2 C  s                37     -0.126424   6 C  s         

 Vector   22  Occ=2.000000D+00  E=-6.142240D-01
              MO Center=  1.7D-01, -2.3D-01, -2.1D-01, r^2= 5.0D+00
   Bfn.  Coefficient  Atom+Function         Bfn.  Coefficient  Atom+Function  
  ----- ------------  ---------------      ----- ------------  ---------------
    30      0.141236   5 H  s               100      0.138517  19 H  s         
   113      0.139037  22 H  s                12      0.134114   2 C  px        
   106      0.134114  21 C  px               82      0.129257  15 C  pz        
    80     -0.128169  15 C  px               70      0.126302  13 C  py        
    69     -0.124957  13 C  px               13      0.112707   2 C  py        

 Vector   23  Occ=2.000000D+00  E=-6.142237D-01
              MO Center= -2.6D-02, -1.9D-02,  3.0D-01, r^2= 5.0D+00
   Bfn.  Coefficient  Atom+Function         Bfn.  Coefficient  Atom+Function  
  ----- ------------  ---------------      ----- ------------  ---------------
    57     -0.163415  10 C  py               81     -0.163414  15 C  py        
    34      0.149640   6 C  px               35      0.147631   6 C  py        
    98      0.123143  18 H  s               117      0.119076  24 H  s         
    12     -0.117818   2 C  px              106     -0.117818  21 C  px        
    63     -0.115470  11 H  s                28     -0.111406   4 H  s         

 Vector   24  Occ=2.000000D+00  E=-6.142229D-01
              MO Center= -1.5D-01,  2.4D-01, -8.2D-02, r^2= 5.0D+00
   Bfn.  Coefficient  Atom+Function         Bfn.  Coefficient  Atom+Function  
  ----- ------------  ---------------      ----- ------------  ---------------
    36      0.169151   6 C  pz               71      0.169150  13 C  pz        
    56     -0.140696  10 C  px               58     -0.137382  10 C  pz        
   115     -0.134312  23 H  s               121     -0.127604  26 H  s         
    65     -0.124316  12 H  s               107      0.122022  21 C  py        
   108     -0.117084  21 C  pz               24     -0.096557   3 C  s         

 Vector   25  Occ=2.000000D+00  E=-5.545195D-01
              MO Center= -7.0D-02, -1.7D-01, -1.1D-01, r^2= 4.5D+00
   Bfn.  Coefficient  Atom+Function         Bfn.  Coefficient  Atom+Function  
  ----- ------------  ---------------      ----- ------------  ---------------
    80     -0.177034  15 C  px               69      0.174543  13 C  px        
    34      0.166706   6 C  px               56     -0.164214  10 C  px        
     4     -0.147822   1 C  py               44      0.147818   7 C  py        
    23      0.124942   3 C  pz               45     -0.124936   7 C  pz        
    82      0.122615  15 C  pz              108     -0.116843  21 C  pz        

 Vector   26  Occ=2.000000D+00  E=-5.545191D-01
              MO Center= -3.3D-02,  1.6D-02,  1.6D-01, r^2= 4.5D+00
   Bfn.  Coefficient  Atom+Function         Bfn.  Coefficient  Atom+Function  
  ----- ------------  ---------------      ----- ------------  ---------------
    35     -0.199913   6 C  py              107      0.195799  21 C  py        
    13      0.193643   2 C  py               70     -0.189539  13 C  py        
     5      0.149161   1 C  pz               93     -0.149158  17 C  pz        
    50      0.113676   8 H  s                52     -0.113676   9 H  s         
     3      0.111429   1 C  px               21     -0.111430   3 C  px        

 Vector   27  Occ=2.000000D+00  E=-5.545183D-01
              MO Center=  1.0D-01,  1.6D-01, -5.4D-02, r^2= 4.5D+00
   Bfn.  Coefficient  Atom+Function         Bfn.  Coefficient  Atom+Function  
  ----- ------------  ---------------      ----- ------------  ---------------
    58     -0.188506  10 C  pz               14      0.186639   2 C  pz        
   108      0.179508  21 C  pz               82     -0.177645  15 C  pz        
    22      0.145348   3 C  py               92     -0.145347  17 C  py        
    43     -0.128192   7 C  px               91      0.128194  17 C  px        
    63      0.110772  11 H  s                65     -0.110773  12 H  s         

 Vector   28  Occ=2.000000D+00  E=-5.370877D-01
              MO Center=  3.3D-03,  6.0D-02, -1.3D-02, r^2= 4.9D+00
   Bfn.  Coefficient  Atom+Function         Bfn.  Coefficient  Atom+Function  
  ----- ------------  ---------------      ----- ------------  ---------------
    12      0.156563   2 C  px              106      0.156562  21 C  px        
     4      0.133684   1 C  py               76      0.133269  14 H  s         
     5     -0.127929   1 C  pz               44     -0.125570   7 C  py        
   119     -0.122211  25 H  s                82     -0.119640  15 C  pz        
    45     -0.116708   7 C  pz                3      0.106655   1 C  px        

 Vector   29  Occ=2.000000D+00  E=-5.370869D-01
              MO Center=  7.3D-02, -1.0D-02,  3.1D-02, r^2= 4.9D+00
   Bfn.  Coefficient  Atom+Function         Bfn.  Coefficient  Atom+Function  
  ----- ------------  ---------------      ----- ------------  ---------------
    57     -0.152492  10 C  py               81     -0.152491  15 C  py        
    87      0.145182  16 H  s                21      0.143495   3 C  px        
    23      0.138210   3 C  pz                3     -0.123429   1 C  px        
   108      0.120909  21 C  pz               22     -0.119483   3 C  py        
    76     -0.117837  14 H  s                 5      0.110463   1 C  pz        

 Vector   30  Occ=2.000000D+00  E=-5.370863D-01
              MO Center= -7.6D-02, -5.0D-02, -1.8D-02, r^2= 4.9D+00
   Bfn.  Coefficient  Atom+Function         Bfn.  Coefficient  Atom+Function  
  ----- ------------  ---------------      ----- ------------  ---------------
   102     -0.154139  20 H  s                91      0.150014  17 C  px        
    36      0.148642   6 C  pz               71      0.148642  13 C  pz        
    92      0.146653  17 C  py               93      0.129271  17 C  pz        
    13      0.119794   2 C  py               43     -0.116550   7 C  px        
   103     -0.115056  20 H  s                56      0.112438  10 C  px        

 Vector   31  Occ=2.000000D+00  E=-4.633501D-01
              MO Center= -3.5D-06, -2.6D-09, -2.9D-10, r^2= 4.4D+00
   Bfn.  Coefficient  Atom+Function         Bfn.  Coefficient  Atom+Function  
  ----- ------------  ---------------      ----- ------------  ---------------
    57      0.258349  10 C  py               81     -0.258350  15 C  py        
    12     -0.185140   2 C  px              106      0.185141  21 C  px        
    61      0.159637  10 C  py               85     -0.159637  15 C  py        
     4     -0.142571   1 C  py               22      0.142570   3 C  py        
    44     -0.142571   7 C  py               92      0.142570  17 C  py        

 Vector   32  Occ=2.000000D+00  E=-4.633498D-01
              MO Center= -3.9D-06, -4.7D-07, -1.5D-11, r^2= 4.4D+00
   Bfn.  Coefficient  Atom+Function         Bfn.  Coefficient  Atom+Function  
  ----- ------------  ---------------      ----- ------------  ---------------
    36      0.256050   6 C  pz               71     -0.256050  13 C  pz        
    12     -0.191424   2 C  px              106      0.191425  21 C  px        
    40      0.158216   6 C  pz               75     -0.158216  13 C  pz        
     5      0.141301   1 C  pz               23     -0.141302   3 C  pz        
    45     -0.141301   7 C  pz               93      0.141301  17 C  pz        

 Vector   33  Occ=2.000000D+00  E=-4.526608D-01
              MO Center= -9.2D-02, -1.2D-01, -1.1D-01, r^2= 4.8D+00
   Bfn.  Coefficient  Atom+Function         Bfn.  Coefficient  Atom+Function  
  ----- ------------  ---------------      ----- ------------  ---------------
    35      0.163323   6 C  py               58     -0.164063  10 C  pz        
    70     -0.149569  13 C  py               82      0.148829  15 C  pz        
    56      0.138082  10 C  px                4      0.136929   1 C  py        
    44     -0.136924   7 C  py               13     -0.135710   2 C  py        
    23     -0.130920   3 C  pz               45      0.130915   7 C  pz        

 Vector   34  Occ=2.000000D+00  E=-4.526603D-01
              MO Center= -4.7D-02,  4.6D-02,  1.6D-01, r^2= 4.8D+00
   Bfn.  Coefficient  Atom+Function         Bfn.  Coefficient  Atom+Function  
  ----- ------------  ---------------      ----- ------------  ---------------
    69      0.172955  13 C  px               70      0.169880  13 C  py        
    14      0.166259   2 C  pz               82     -0.162991  15 C  pz        
   108     -0.160704  21 C  pz               58      0.157440  10 C  pz        
     5     -0.155367   1 C  pz               93      0.155367  17 C  pz        
    34     -0.154003   6 C  px               35     -0.150547   6 C  py        

 Vector   35  Occ=2.000000D+00  E=-4.526592D-01
              MO Center=  1.4D-01,  7.8D-02, -4.9D-02, r^2= 4.8D+00
   Bfn.  Coefficient  Atom+Function         Bfn.  Coefficient  Atom+Function  
  ----- ------------  ---------------      ----- ------------  ---------------
   107     -0.196287  21 C  py               80      0.193149  15 C  px        
    56     -0.185253  10 C  px               13      0.182118   2 C  py        
    43      0.148301   7 C  px               91     -0.148303  17 C  px        
   108     -0.130968  21 C  pz               28     -0.128155   4 H  s         
    30      0.128155   5 H  s                17      0.123524   2 C  py        

 Vector   36  Occ=2.000000D+00  E=-3.936301D-01
              MO Center=  1.9D-01,  1.9D-02, -2.2D-02, r^2= 4.8D+00
   Bfn.  Coefficient  Atom+Function         Bfn.  Coefficient  Atom+Function  
  ----- ------------  ---------------      ----- ------------  ---------------
    13     -0.166350   2 C  py                4      0.157870   1 C  py        
    14      0.157638   2 C  pz               22      0.157073   3 C  py        
    92      0.150726  17 C  py               44      0.149927   7 C  py        
    77      0.149255  14 H  s                76      0.147659  14 H  s         
     5     -0.140638   1 C  pz               23     -0.139840   3 C  pz        

 Vector   37  Occ=2.000000D+00  E=-3.936290D-01
              MO Center= -2.3D-02,  7.7D-02,  1.0D-01, r^2= 4.8D+00
   Bfn.  Coefficient  Atom+Function         Bfn.  Coefficient  Atom+Function  
  ----- ------------  ---------------      ----- ------------  ---------------
    43      0.195793   7 C  px                3      0.192785   1 C  px        
    21      0.193525   3 C  px               91      0.190513  17 C  px        
    34     -0.173312   6 C  px               56     -0.168909  10 C  px        
    47      0.146744   7 C  px              120     -0.143606  25 H  s         
    80     -0.141899  15 C  px              119     -0.142070  25 H  s         

 Vector   38  Occ=2.000000D+00  E=-3.936287D-01
              MO Center= -1.7D-01, -9.6D-02, -8.0D-02, r^2= 4.8D+00
   Bfn.  Coefficient  Atom+Function         Bfn.  Coefficient  Atom+Function  
  ----- ------------  ---------------      ----- ------------  ---------------
   103      0.167759  20 H  s               102      0.165965  20 H  s         
   108      0.158328  21 C  pz               93     -0.153586  17 C  pz        
    45     -0.149902   7 C  pz               23     -0.147054   3 C  pz        
   107      0.146510  21 C  py                5     -0.143370   1 C  pz        
    82      0.141380  15 C  pz               92     -0.130212  17 C  py        

 Vector   39  Occ=0.000000D+00  E= 2.054042D-01
              MO Center=  5.9D-06,  8.8D-06,  7.5D-13, r^2= 9.3D+00
   Bfn.  Coefficient  Atom+Function         Bfn.  Coefficient  Atom+Function  
  ----- ------------  ---------------      ----- ------------  ---------------
    15      0.664339   2 C  s                37      0.664339   6 C  s         
    59      0.664340  10 C  s                72      0.664339  13 C  s         
    83      0.664339  15 C  s               109      0.664338  21 C  s         
    29     -0.458814   4 H  s                31     -0.458813   5 H  s         
    51     -0.458810   8 H  s                53     -0.458811   9 H  s         

 Vector   40  Occ=0.000000D+00  E= 2.744537D-01
              MO Center=  2.3D-03, -8.3D-02, -4.2D-02, r^2= 9.4D+00
   Bfn.  Coefficient  Atom+Function         Bfn.  Coefficient  Atom+Function  
  ----- ------------  ---------------      ----- ------------  ---------------
    15      1.110547   2 C  s               109     -1.110555  21 C  s         
    29     -0.732785   4 H  s               122      0.703698  26 H  s         
   118      0.676114  24 H  s                31     -0.647007   5 H  s         
   116     -0.571725  23 H  s                99     -0.567188  18 H  s         
    51      0.542635   8 H  s               101      0.528562  19 H  s         

 Vector   41  Occ=0.000000D+00  E= 2.744539D-01
              MO Center=  5.4D-01,  2.8D-02,  6.6D-02, r^2= 9.1D+00
   Bfn.  Coefficient  Atom+Function         Bfn.  Coefficient  Atom+Function  
  ----- ------------  ---------------      ----- ------------  ---------------
    59      1.024258  10 C  s                83     -1.024248  15 C  s         
    66     -0.862548  12 H  s                99      0.813685  18 H  s         
    53     -0.771587   9 H  s               116      0.722734  23 H  s         
    31     -0.713466   5 H  s                29      0.648605   4 H  s         
   103      0.573003  20 H  s               120     -0.533322  25 H  s         

 Vector   42  Occ=0.000000D+00  E= 2.744542D-01
              MO Center= -5.4D-01,  5.5D-02, -2.3D-02, r^2= 9.1D+00
   Bfn.  Coefficient  Atom+Function         Bfn.  Coefficient  Atom+Function  
  ----- ------------  ---------------      ----- ------------  ---------------
    37      1.023784   6 C  s                72     -1.023779  13 C  s         
   114      0.859203  22 H  s                51     -0.818284   8 H  s         
    64      0.768705  11 H  s               101     -0.727784  19 H  s         
   118      0.708908  24 H  s               122     -0.654602  26 H  s         
    88     -0.570399  16 H  s                77      0.537181  14 H  s         

 Vector   43  Occ=0.000000D+00  E= 2.819405D-01
              MO Center= -2.2D-01, -3.8D-01, -1.8D-01, r^2= 8.8D+00
   Bfn.  Coefficient  Atom+Function         Bfn.  Coefficient  Atom+Function  
  ----- ------------  ---------------      ----- ------------  ---------------
    94      1.608509  17 C  s               103     -1.071748  20 H  s         
    24     -0.943948   3 C  s                64      0.767611  11 H  s         
    29      0.749934   4 H  s                51      0.740973   8 H  s         
    88      0.628949  16 H  s                66     -0.488637  12 H  s         
    46     -0.457163   7 C  s               122     -0.422874  26 H  s         

 Vector   44  Occ=0.000000D+00  E= 2.819409D-01
              MO Center= -9.3D-02,  7.4D-02,  4.2D-01, r^2= 8.8D+00
   Bfn.  Coefficient  Atom+Function         Bfn.  Coefficient  Atom+Function  
  ----- ------------  ---------------      ----- ------------  ---------------
    46      1.476629   7 C  s                24     -1.210935   3 C  s         
   120     -0.983863  25 H  s                88      0.806820  16 H  s         
   114      0.717180  22 H  s                31      0.683705   5 H  s         
   101      0.672500  19 H  s               116     -0.605633  23 H  s         
   122     -0.552948  26 H  s                66     -0.541755  12 H  s         

 Vector   45  Occ=0.000000D+00  E= 2.819412D-01
              MO Center=  3.1D-01,  3.0D-01, -2.4D-01, r^2= 8.8D+00
   Bfn.  Coefficient  Atom+Function         Bfn.  Coefficient  Atom+Function  
  ----- ------------  ---------------      ----- ------------  ---------------
     6      1.659577   1 C  s                77     -1.105753  14 H  s         
    99      0.779866  18 H  s               118      0.780739  24 H  s         
    53      0.769688   9 H  s                24     -0.663566   3 C  s         
    46     -0.639000   7 C  s                88      0.442138  16 H  s         
   120      0.425754  25 H  s                86      0.382173  15 C  pz        

 Vector   46  Occ=0.000000D+00  E= 2.975981D-01
              MO Center=  9.9D-07, -9.8D-06,  6.3D-11, r^2= 8.3D+00
   Bfn.  Coefficient  Atom+Function         Bfn.  Coefficient  Atom+Function  
  ----- ------------  ---------------      ----- ------------  ---------------
    77      0.936053  14 H  s                88      0.936064  16 H  s         
   103      0.936071  20 H  s               120      0.936061  25 H  s         
    16      0.624143   2 C  px               40      0.624141   6 C  pz        
    61      0.624141  10 C  py               75     -0.624141  13 C  pz        
    85     -0.624139  15 C  py              110     -0.624132  21 C  px        

 Vector   47  Occ=0.000000D+00  E= 3.203292D-01
              MO Center= -1.0D-05,  7.0D-06, -2.9D-10, r^2= 8.6D+00
   Bfn.  Coefficient  Atom+Function         Bfn.  Coefficient  Atom+Function  
  ----- ------------  ---------------      ----- ------------  ---------------
    15      1.861135   2 C  s               109      1.861143  21 C  s         
    59     -1.671571  10 C  s                83     -1.671570  15 C  s         
    29     -0.646914   4 H  s                31     -0.646918   5 H  s         
   118     -0.646922  24 H  s               122     -0.646917  26 H  s         
    64      0.581027  11 H  s                66      0.581025  12 H  s         

 Vector   48  Occ=0.000000D+00  E= 3.203296D-01
              MO Center= -7.9D-07,  2.9D-06,  9.9D-11, r^2= 8.6D+00
   Bfn.  Coefficient  Atom+Function         Bfn.  Coefficient  Atom+Function  
  ----- ------------  ---------------      ----- ------------  ---------------
    37      2.039619   6 C  s                72      2.039619  13 C  s         
    59     -1.183982  10 C  s                83     -1.183980  15 C  s         
    15     -0.855632   2 C  s               109     -0.855635  21 C  s         
    51     -0.708951   8 H  s                53     -0.708953   9 H  s         
   114     -0.708954  22 H  s               116     -0.708950  23 H  s         

 Vector   49  Occ=0.000000D+00  E= 3.506535D-01
              MO Center=  1.5D-01, -5.4D-01,  3.4D-01, r^2= 9.5D+00
   Bfn.  Coefficient  Atom+Function         Bfn.  Coefficient  Atom+Function  
  ----- ------------  ---------------      ----- ------------  ---------------
    24     -1.384334   3 C  s                88      1.359503  16 H  s         
    15      1.271968   2 C  s               109     -1.271950  21 C  s         
    94      0.939349  17 C  s               103     -0.922493  20 H  s         
   122      0.841655  26 H  s                29     -0.740303   4 H  s         
    31     -0.679745   5 H  s                46      0.673257   7 C  s         

 Vector   50  Occ=0.000000D+00  E= 3.506536D-01
              MO Center=  3.0D-01,  1.1D-01, -4.9D-01, r^2= 9.6D+00
   Bfn.  Coefficient  Atom+Function         Bfn.  Coefficient  Atom+Function  
  ----- ------------  ---------------      ----- ------------  ---------------
     6      1.339726   1 C  s                59     -1.309331  10 C  s         
    77     -1.315699  14 H  s                83      1.309396  15 C  s         
    94     -0.950145  17 C  s               103      0.933097  20 H  s         
    99     -0.846985  18 H  s                64      0.758271  11 H  s         
    24     -0.709850   3 C  s                66      0.703517  12 H  s         

 Vector   51  Occ=0.000000D+00  E= 3.506540D-01
              MO Center= -4.5D-01,  4.2D-01,  1.5D-01, r^2= 9.5D+00
   Bfn.  Coefficient  Atom+Function         Bfn.  Coefficient  Atom+Function  
  ----- ------------  ---------------      ----- ------------  ---------------
    46     -1.386446   7 C  s               120      1.361576  25 H  s         
    37      1.283248   6 C  s                72     -1.283229  13 C  s         
   114      0.846823  22 H  s                94      0.832434  17 C  s         
   103     -0.817498  20 H  s                 6      0.794416   1 C  s         
    77     -0.780175  14 H  s                51     -0.720631   8 H  s         

 Vector   52  Occ=0.000000D+00  E= 3.685294D-01
              MO Center=  5.5D-04,  8.6D-01, -2.7D-04, r^2= 8.5D+00
   Bfn.  Coefficient  Atom+Function         Bfn.  Coefficient  Atom+Function  
  ----- ------------  ---------------      ----- ------------  ---------------
    64      1.209504  11 H  s                66     -1.209509  12 H  s         
    60      0.888440  10 C  px               29     -0.803258   4 H  s         
    31      0.803215   5 H  s               118     -0.802699  24 H  s         
   122      0.802742  26 H  s                62      0.738565  10 C  pz        
    17     -0.691961   2 C  py              111      0.691720  21 C  py        

 Vector   53  Occ=0.000000D+00  E= 3.685301D-01
              MO Center= -3.1D-04,  2.1D-07,  7.3D-04, r^2= 9.2D+00
   Bfn.  Coefficient  Atom+Function         Bfn.  Coefficient  Atom+Function  
  ----- ------------  ---------------      ----- ------------  ---------------
    29      0.899884   4 H  s                31     -0.899884   5 H  s         
    51     -0.900359   8 H  s                53      0.900364   9 H  s         
   114      0.899746  22 H  s               116     -0.899750  23 H  s         
   118     -0.900139  24 H  s               122      0.900139  26 H  s         
    18      0.775378   2 C  pz               38     -0.775630   6 C  px        

 Vector   54  Occ=0.000000D+00  E= 3.685306D-01
              MO Center= -2.3D-04, -8.6D-01, -4.6D-04, r^2= 8.5D+00
   Bfn.  Coefficient  Atom+Function         Bfn.  Coefficient  Atom+Function  
  ----- ------------  ---------------      ----- ------------  ---------------
    99      1.209536  18 H  s               101     -1.209533  19 H  s         
    86      0.888448  15 C  pz               51      0.802799   8 H  s         
    53     -0.802763   9 H  s               114      0.803195  22 H  s         
   116     -0.803232  23 H  s                84     -0.738589  15 C  px        
    39      0.691752   6 C  py               74     -0.691961  13 C  py        

 Vector   55  Occ=0.000000D+00  E= 4.044352D-01
              MO Center= -5.0D-01,  5.1D-02,  5.2D-02, r^2= 6.2D+00
   Bfn.  Coefficient  Atom+Function         Bfn.  Coefficient  Atom+Function  
  ----- ------------  ---------------      ----- ------------  ---------------
    46      2.333219   7 C  s                94     -2.105208  17 C  s         
    59     -0.903062  10 C  s                83      0.903085  15 C  s         
    37     -0.883621   6 C  s                72      0.883603  13 C  s         
    61      0.774872  10 C  py               85      0.774935  15 C  py        
    40      0.758213   6 C  pz               75      0.758180  13 C  pz        

 Vector   56  Occ=0.000000D+00  E= 4.044358D-01
              MO Center=  4.0D-01,  2.8D-01, -2.9D-01, r^2= 6.1D+00
   Bfn.  Coefficient  Atom+Function         Bfn.  Coefficient  Atom+Function  
  ----- ------------  ---------------      ----- ------------  ---------------
     6      2.691531   1 C  s                24     -1.296375   3 C  s         
     7     -0.867697   1 C  px                8     -0.867243   1 C  py        
     9      0.867278   1 C  pz               77      0.843305  14 H  s         
    59     -0.822757  10 C  s                83      0.822791  15 C  s         
    37      0.782577   6 C  s                72     -0.782581  13 C  s         

 Vector   57  Occ=0.000000D+00  E= 4.044359D-01
              MO Center=  9.7D-02, -3.3D-01,  2.4D-01, r^2= 6.3D+00
   Bfn.  Coefficient  Atom+Function         Bfn.  Coefficient  Atom+Function  
  ----- ------------  ---------------      ----- ------------  ---------------
    24      2.393241   3 C  s                94     -1.560962  17 C  s         
    46     -1.250587   7 C  s                15     -1.131738   2 C  s         
   109      1.131769  21 C  s                16      0.971075   2 C  px        
   110      0.971176  21 C  px               25     -0.770525   3 C  px        
    26      0.771757   3 C  py               27     -0.771562   3 C  pz        

 Vector   58  Occ=0.000000D+00  E= 4.140707D-01
              MO Center=  1.3D-05, -2.7D-06,  1.2D-09, r^2= 6.8D+00
   Bfn.  Coefficient  Atom+Function         Bfn.  Coefficient  Atom+Function  
  ----- ------------  ---------------      ----- ------------  ---------------
    16      0.990343   2 C  px              110     -0.990254  21 C  px        
    61     -0.870922  10 C  py               85      0.870859  15 C  py        
    29     -0.682894   4 H  s                31     -0.682873   5 H  s         
   118     -0.682861  24 H  s               122     -0.682883  26 H  s         
    64      0.600528  11 H  s                66      0.600504  12 H  s         

 Vector   59  Occ=0.000000D+00  E= 4.140711D-01
              MO Center=  3.6D-06, -1.5D-06,  8.0D-11, r^2= 6.8D+00
   Bfn.  Coefficient  Atom+Function         Bfn.  Coefficient  Atom+Function  
  ----- ------------  ---------------      ----- ------------  ---------------
    40      1.074572   6 C  pz               75     -1.074572  13 C  pz        
    51     -0.740991   8 H  s                53     -0.740964   9 H  s         
   114     -0.740976  22 H  s               116     -0.740980  23 H  s         
    61     -0.640717  10 C  py               85      0.640670  15 C  py        
     9     -0.625541   1 C  pz               27      0.625519   3 C  pz        

 Vector   60  Occ=0.000000D+00  E= 4.493495D-01
              MO Center=  5.6D-06, -2.4D-05, -6.5D-10, r^2= 6.9D+00
   Bfn.  Coefficient  Atom+Function         Bfn.  Coefficient  Atom+Function  
  ----- ------------  ---------------      ----- ------------  ---------------
     6      2.425320   1 C  s                24      2.425325   3 C  s         
    46      2.425266   7 C  s                94      2.425271  17 C  s         
    15     -1.584119   2 C  s                37     -1.584070   6 C  s         
    59     -1.584017  10 C  s                72     -1.584070  13 C  s         
    83     -1.584125  15 C  s               109     -1.584063  21 C  s         

 Vector   61  Occ=0.000000D+00  E= 4.633338D-01
              MO Center=  1.6D-01, -1.7D-02, -9.6D-03, r^2= 5.9D+00
   Bfn.  Coefficient  Atom+Function         Bfn.  Coefficient  Atom+Function  
  ----- ------------  ---------------      ----- ------------  ---------------
    37      1.644105   6 C  s                72     -1.644070  13 C  s         
    27     -1.180470   3 C  pz                8     -1.164303   1 C  py        
    95      1.146185  17 C  px                9     -1.095367   1 C  pz        
    26     -1.079194   3 C  py               47     -1.056695   7 C  px        
    40     -1.018050   6 C  pz               75     -1.018031  13 C  pz        

 Vector   62  Occ=0.000000D+00  E= 4.633344D-01
              MO Center= -6.1D-04, -4.7D-03,  4.9D-02, r^2= 5.9D+00
   Bfn.  Coefficient  Atom+Function         Bfn.  Coefficient  Atom+Function  
  ----- ------------  ---------------      ----- ------------  ---------------
    15      1.868348   2 C  s               109     -1.868302  21 C  s         
    16     -1.156887   2 C  px              110     -1.156879  21 C  px        
    25     -0.960841   3 C  px               47     -0.940423   7 C  px        
    48     -0.924839   7 C  py               97      0.919938  17 C  pz        
    26     -0.904412   3 C  py                9     -0.898459   1 C  pz        

 Vector   63  Occ=0.000000D+00  E= 4.633345D-01
              MO Center= -1.6D-01,  2.2D-02, -3.9D-02, r^2= 5.9D+00
   Bfn.  Coefficient  Atom+Function         Bfn.  Coefficient  Atom+Function  
  ----- ------------  ---------------      ----- ------------  ---------------
    59      1.628852  10 C  s                83     -1.628775  15 C  s         
    96     -1.229947  17 C  py               49      1.214235   7 C  pz        
     7      1.198743   1 C  px               48     -1.036420   7 C  py        
    97      1.020699  17 C  pz               61     -1.008602  10 C  py        
    85     -1.008561  15 C  py               25     -0.995233   3 C  px        

 Vector   64  Occ=0.000000D+00  E= 4.980362D-01
              MO Center= -2.7D-02,  2.1D-01, -1.5D-01, r^2= 6.3D+00
   Bfn.  Coefficient  Atom+Function         Bfn.  Coefficient  Atom+Function  
  ----- ------------  ---------------      ----- ------------  ---------------
    60      1.397920  10 C  px               73     -1.367436  13 C  px        
    38     -1.230946   6 C  px               84      1.200459  15 C  px        
     8     -1.145831   1 C  py               48      1.145829   7 C  py        
     9     -1.089939   1 C  pz               97      1.089941  17 C  pz        
    27      0.839718   3 C  pz               49     -0.839720   7 C  pz        

 Vector   65  Occ=0.000000D+00  E= 4.980366D-01
              MO Center= -5.6D-01, -1.8D-01,  1.8D-01, r^2= 6.0D+00
   Bfn.  Coefficient  Atom+Function         Bfn.  Coefficient  Atom+Function  
  ----- ------------  ---------------      ----- ------------  ---------------
    47      1.365590   7 C  px               95     -1.365588  17 C  px        
   111      1.300579  21 C  py              112      1.283134  21 C  pz        
    39     -1.051903   6 C  py               86     -1.022579  15 C  pz        
    27     -0.909687   3 C  pz               49      0.909681   7 C  pz        
    26     -0.887911   3 C  py               96      0.887904  17 C  py        

 Vector   66  Occ=0.000000D+00  E= 4.980382D-01
              MO Center=  5.9D-01, -3.6D-02, -3.5D-02, r^2= 6.0D+00
   Bfn.  Coefficient  Atom+Function         Bfn.  Coefficient  Atom+Function  
  ----- ------------  ---------------      ----- ------------  ---------------
     7      1.398254   1 C  px               25     -1.398253   3 C  px        
    18      1.326404   2 C  pz               17     -1.319170   2 C  py        
    86     -0.970331  15 C  pz               74      0.958171  13 C  py        
    62     -0.924586  10 C  pz               39      0.912425   6 C  py        
    26     -0.745578   3 C  py               96      0.745529  17 C  py        

 Vector   67  Occ=0.000000D+00  E= 7.831155D-01
              MO Center=  6.5D-01, -2.2D-02, -2.0D-02, r^2= 5.7D+00
   Bfn.  Coefficient  Atom+Function         Bfn.  Coefficient  Atom+Function  
  ----- ------------  ---------------      ----- ------------  ---------------
     7      0.514412   1 C  px               25     -0.514405   3 C  px        
    17      0.420411   2 C  py               18     -0.411894   2 C  pz        
    13     -0.403776   2 C  py               14      0.401433   2 C  pz        
     3     -0.296313   1 C  px               21      0.296302   3 C  px        
    26     -0.278113   3 C  py               96      0.278098  17 C  py        

 Vector   68  Occ=0.000000D+00  E= 7.831175D-01
              MO Center= -5.0D-01, -3.6D-01,  4.1D-01, r^2= 5.6D+00
   Bfn.  Coefficient  Atom+Function         Bfn.  Coefficient  Atom+Function  
  ----- ------------  ---------------      ----- ------------  ---------------
    47      0.452075   7 C  px               95     -0.452065  17 C  px        
    27     -0.413529   3 C  pz               49      0.413543   7 C  pz        
    26     -0.385734   3 C  py               96      0.385739  17 C  py        
   112     -0.370369  21 C  pz              111     -0.361077  21 C  py        
   108      0.355089  21 C  pz              107      0.352547  21 C  py        

 Vector   69  Occ=0.000000D+00  E= 7.831176D-01
              MO Center= -1.5D-01,  3.8D-01, -3.9D-01, r^2= 5.8D+00
   Bfn.  Coefficient  Atom+Function         Bfn.  Coefficient  Atom+Function  
  ----- ------------  ---------------      ----- ------------  ---------------
     8      0.442068   1 C  py                9      0.444031   1 C  pz        
    48     -0.442070   7 C  py               97     -0.444027  17 C  pz        
    62     -0.390765  10 C  pz               74     -0.392042  13 C  py        
    58      0.355056  10 C  pz               70      0.356514  13 C  py        
    56     -0.336860  10 C  px               69      0.338475  13 C  px        

 Vector   70  Occ=0.000000D+00  E= 7.866508D-01
              MO Center= -4.8D-01,  1.6D-02, -1.6D-02, r^2= 5.3D+00
   Bfn.  Coefficient  Atom+Function         Bfn.  Coefficient  Atom+Function  
  ----- ------------  ---------------      ----- ------------  ---------------
    40      0.443217   6 C  pz               75      0.443220  13 C  pz        
    61     -0.433231  10 C  py               85     -0.433238  15 C  py        
    37     -0.398118   6 C  s                72      0.398118  13 C  s         
    59      0.389163  10 C  s                83     -0.389152  15 C  s         
   121      0.332369  26 H  s               117     -0.328722  24 H  s         

 Vector   71  Occ=0.000000D+00  E= 7.866517D-01
              MO Center= -4.0D-05, -1.0D-03,  3.2D-02, r^2= 5.5D+00
   Bfn.  Coefficient  Atom+Function         Bfn.  Coefficient  Atom+Function  
  ----- ------------  ---------------      ----- ------------  ---------------
    16      0.619612   2 C  px              110      0.619620  21 C  px        
    15     -0.556580   2 C  s               109      0.556593  21 C  s         
    12     -0.424071   2 C  px              106     -0.424078  21 C  px        
    39     -0.370102   6 C  py               62     -0.368951  10 C  pz        
    74      0.367840  13 C  py               86      0.369060  15 C  pz        

 Vector   72  Occ=0.000000D+00  E= 7.866526D-01
              MO Center=  4.8D-01, -1.5D-02, -1.6D-02, r^2= 5.3D+00
   Bfn.  Coefficient  Atom+Function         Bfn.  Coefficient  Atom+Function  
  ----- ------------  ---------------      ----- ------------  ---------------
    61      0.442995  10 C  py               85      0.443003  15 C  py        
    40      0.433485   6 C  pz               75      0.433481  13 C  pz        
    59     -0.397930  10 C  s                83      0.397919  15 C  s         
    37     -0.389369   6 C  s                72      0.389369  13 C  s         
    30      0.332304   5 H  s                28     -0.328804   4 H  s         

 Vector   73  Occ=0.000000D+00  E= 8.472807D-01
              MO Center= -5.7D-06,  3.8D-06,  1.1D-12, r^2= 4.9D+00
   Bfn.  Coefficient  Atom+Function         Bfn.  Coefficient  Atom+Function  
  ----- ------------  ---------------      ----- ------------  ---------------
    76      0.326714  14 H  s                87      0.326713  16 H  s         
   102      0.326712  20 H  s               119      0.326713  25 H  s         
    12      0.245903   2 C  px               36      0.245917   6 C  pz        
    57      0.245912  10 C  py               71     -0.245917  13 C  pz        
    81     -0.245911  15 C  py              106     -0.245909  21 C  px        

 Vector   74  Occ=0.000000D+00  E= 9.138221D-01
              MO Center= -5.0D-01,  1.4D-02,  1.3D-02, r^2= 4.2D+00
   Bfn.  Coefficient  Atom+Function         Bfn.  Coefficient  Atom+Function  
  ----- ------------  ---------------      ----- ------------  ---------------
    46      1.321047   7 C  s                94     -1.285744  17 C  s         
    40      0.561411   6 C  pz               75      0.561389  13 C  pz        
   111     -0.554063  21 C  py              112     -0.540803  21 C  pz        
    61      0.525562  10 C  py               85      0.525602  15 C  py        
    47      0.435809   7 C  px               42     -0.426695   7 C  s         

 Vector   75  Occ=0.000000D+00  E= 9.138232D-01
              MO Center=  5.0D-01,  6.6D-02, -7.1D-02, r^2= 4.2D+00
   Bfn.  Coefficient  Atom+Function         Bfn.  Coefficient  Atom+Function  
  ----- ------------  ---------------      ----- ------------  ---------------
     6      1.386378   1 C  s                24     -1.208572   3 C  s         
    61      0.559842  10 C  py               85      0.559883  15 C  py        
    18      0.551894   2 C  pz               17     -0.537957   2 C  py        
    40     -0.522186   6 C  pz               75     -0.522210  13 C  pz        
     2     -0.447799   1 C  s                 7     -0.448848   1 C  px        

 Vector   76  Occ=0.000000D+00  E= 9.138235D-01
              MO Center=  4.5D-03, -8.0D-02,  5.7D-02, r^2= 4.4D+00
   Bfn.  Coefficient  Atom+Function         Bfn.  Coefficient  Atom+Function  
  ----- ------------  ---------------      ----- ------------  ---------------
    24      1.044329   3 C  s                94     -0.938557  17 C  s         
    46     -0.897181   7 C  s                 6      0.791332   1 C  s         
    16      0.765416   2 C  px              110      0.765490  21 C  px        
    86     -0.546706  15 C  pz               15     -0.540269   2 C  s         
    39      0.541209   6 C  py              109      0.540315  21 C  s         

 Vector   77  Occ=0.000000D+00  E= 9.338119D-01
              MO Center=  2.2D-06,  2.8D-06,  4.5D-10, r^2= 7.3D+00
   Bfn.  Coefficient  Atom+Function         Bfn.  Coefficient  Atom+Function  
  ----- ------------  ---------------      ----- ------------  ---------------
    40      1.254813   6 C  pz               75     -1.254813  13 C  pz        
    37      1.144733   6 C  s                72      1.144733  13 C  s         
    61     -0.806671  10 C  py               85      0.806651  15 C  py        
    59     -0.735846  10 C  s                83     -0.735915  15 C  s         
     9      0.506625   1 C  pz               27     -0.506642   3 C  pz        

 Vector   78  Occ=0.000000D+00  E= 9.338151D-01
              MO Center=  1.0D-05,  4.2D-06,  4.2D-10, r^2= 7.3D+00
   Bfn.  Coefficient  Atom+Function         Bfn.  Coefficient  Atom+Function  
  ----- ------------  ---------------      ----- ------------  ---------------
    16      1.190183   2 C  px              110     -1.190166  21 C  px        
    15      1.085792   2 C  s               109      1.085781  21 C  s         
    61     -0.983210  10 C  py               85      0.983185  15 C  py        
    59     -0.896929  10 C  s                83     -0.897013  15 C  s         
     7     -0.480563   1 C  px               25     -0.480584   3 C  px        

 Vector   79  Occ=0.000000D+00  E= 9.611576D-01
              MO Center=  1.2D-06,  9.9D-06, -1.9D-10, r^2= 4.6D+00
   Bfn.  Coefficient  Atom+Function         Bfn.  Coefficient  Atom+Function  
  ----- ------------  ---------------      ----- ------------  ---------------
    61     -0.754151  10 C  py               85      0.754148  15 C  py        
    59      0.726325  10 C  s                83      0.726296  15 C  s         
     8     -0.649896   1 C  py               26      0.649882   3 C  py        
    48     -0.649894   7 C  py               96      0.649880  17 C  py        
    40      0.645478   6 C  pz               75     -0.645478  13 C  pz        

 Vector   80  Occ=0.000000D+00  E= 9.611584D-01
              MO Center=  4.5D-06,  1.5D-06,  5.2D-11, r^2= 4.6D+00
   Bfn.  Coefficient  Atom+Function         Bfn.  Coefficient  Atom+Function  
  ----- ------------  ---------------      ----- ------------  ---------------
    16     -0.808077   2 C  px              110      0.808045  21 C  px        
    15      0.778180   2 C  s               109      0.778161  21 C  s         
     7     -0.696373   1 C  px               25     -0.696371   3 C  px        
    47      0.696413   7 C  px               95      0.696411  17 C  px        
    40      0.498208   6 C  pz               75     -0.498208  13 C  pz        

 Vector   81  Occ=0.000000D+00  E= 9.704441D-01
              MO Center=  2.8D-05, -8.3D-07, -5.8D-11, r^2= 3.6D+00
   Bfn.  Coefficient  Atom+Function         Bfn.  Coefficient  Atom+Function  
  ----- ------------  ---------------      ----- ------------  ---------------
     6      0.860500   1 C  s                24      0.860497   3 C  s         
    46      0.860460   7 C  s                94      0.860457  17 C  s         
    16      0.583608   2 C  px               40      0.583404   6 C  pz        
    61      0.583443  10 C  py               75     -0.583404  13 C  pz        
    85     -0.583450  15 C  py              110     -0.583573  21 C  px        

 Vector   82  Occ=0.000000D+00  E= 1.027945D+00
              MO Center= -1.4D-02, -2.6D-03, -4.2D-03, r^2= 5.0D+00
   Bfn.  Coefficient  Atom+Function         Bfn.  Coefficient  Atom+Function  
  ----- ------------  ---------------      ----- ------------  ---------------
    26      0.951133   3 C  py                9      0.838917   1 C  pz        
     8      0.813068   1 C  py              112      0.713725  21 C  pz        
    47      0.707323   7 C  px               27      0.700867   3 C  pz        
   111      0.655071  21 C  py               73      0.565329  13 C  px        
    61      0.531259  10 C  py               85      0.531245  15 C  py        

 Vector   83  Occ=0.000000D+00  E= 1.027945D+00
              MO Center= -7.8D-05,  5.8D-04,  5.5D-03, r^2= 5.0D+00
   Bfn.  Coefficient  Atom+Function         Bfn.  Coefficient  Atom+Function  
  ----- ------------  ---------------      ----- ------------  ---------------
    95      0.859488  17 C  px                7      0.843510   1 C  px        
    25      0.706994   3 C  px               47      0.690993   7 C  px        
    39     -0.660948   6 C  py               16      0.625657   2 C  px        
   110      0.625618  21 C  px               62     -0.595512  10 C  pz        
    86      0.580177  15 C  pz                8     -0.568107   1 C  py        

 Vector   84  Occ=0.000000D+00  E= 1.027945D+00
              MO Center=  1.4D-02,  2.1D-03, -1.3D-03, r^2= 5.0D+00
   Bfn.  Coefficient  Atom+Function         Bfn.  Coefficient  Atom+Function  
  ----- ------------  ---------------      ----- ------------  ---------------
    97      0.925249  17 C  pz               49      0.858478   7 C  pz        
    48     -0.805474   7 C  py               96     -0.738705  17 C  py        
    17     -0.720601   2 C  py               18      0.658017   2 C  pz        
    25     -0.645534   3 C  px               40      0.541028   6 C  pz        
    60     -0.540363  10 C  px               75      0.541030  13 C  pz        

 Vector   85  Occ=0.000000D+00  E= 1.075283D+00
              MO Center= -6.7D-02,  3.7D-02, -2.9D-03, r^2= 6.4D+00
   Bfn.  Coefficient  Atom+Function         Bfn.  Coefficient  Atom+Function  
  ----- ------------  ---------------      ----- ------------  ---------------
    37      1.517501   6 C  s                72     -1.517499  13 C  s         
     9     -1.279640   1 C  pz               27     -1.283295   3 C  pz        
[...]
     Magnetic Dipole                               0.0000013626
     Total Oscillator Strength                     0.0000013626

     Occ.   22  a   ---  Virt.   53  a       -0.05103
     Occ.   23  a   ---  Virt.   52  a       -0.06330
     Occ.   27  a   ---  Virt.   39  a        0.12722
     Occ.   28  a   ---  Virt.   41  a       -0.06149
     Occ.   30  a   ---  Virt.   40  a        0.06437
     Occ.   31  a   ---  Virt.   40  a        0.15282
     Occ.   31  a   ---  Virt.   41  a        0.19822
     Occ.   31  a   ---  Virt.   42  a        0.28869
     Occ.   31  a   ---  Virt.   43  a        0.29246
     Occ.   31  a   ---  Virt.   45  a        0.08043
     Occ.   31  a   ---  Virt.   49  a       -0.05947
     Occ.   31  a   ---  Virt.   51  a       -0.05935
     Occ.   31  a   ---  Virt.   55  a       -0.05686
     Occ.   31  a   ---  Virt.   57  a       -0.05500
     Occ.   32  a   ---  Virt.   40  a       -0.17969
     Occ.   32  a   ---  Virt.   41  a        0.27111
     Occ.   32  a   ---  Virt.   44  a       -0.25424
     Occ.   32  a   ---  Virt.   54  a       -0.05242
     Occ.   32  a   ---  Virt.   55  a       -0.05657
     Occ.   33  a   ---  Virt.   43  a        0.06955
     Occ.   33  a   ---  Virt.   45  a        0.10963
     Occ.   34  a   ---  Virt.   44  a       -0.13750
     Occ.   35  a   ---  Virt.   39  a        0.08859
     Occ.   35  a   ---  Virt.   43  a       -0.07871
     Occ.   35  a   ---  Virt.   45  a        0.20276
     Occ.   35  a   ---  Virt.   46  a        0.20219
     Occ.   35  a   ---  Virt.   60  a        0.06831
     Occ.   36  a   ---  Virt.   48  a       -0.07094
     Occ.   36  a   ---  Virt.   52  a       -0.20810
     Occ.   36  a   ---  Virt.   53  a        0.10207
     Occ.   36  a   ---  Virt.   54  a        0.16639
     Occ.   36  a   ---  Virt.   55  a       -0.05666
     Occ.   36  a   ---  Virt.   59  a        0.05666
     Occ.   37  a   ---  Virt.   48  a        0.10830
     Occ.   37  a   ---  Virt.   51  a        0.05312
     Occ.   37  a   ---  Virt.   52  a       -0.08224
     Occ.   37  a   ---  Virt.   53  a        0.20800
     Occ.   37  a   ---  Virt.   54  a       -0.06627
     Occ.   37  a   ---  Virt.   55  a        0.11528
     Occ.   37  a   ---  Virt.   57  a        0.05101
     Occ.   37  a   ---  Virt.   59  a       -0.08546
     Occ.   38  a   ---  Virt.   47  a       -0.15759
     Occ.   38  a   ---  Virt.   49  a        0.07271
     Occ.   38  a   ---  Virt.   52  a        0.12094
     Occ.   38  a   ---  Virt.   54  a        0.05209
     Occ.   38  a   ---  Virt.   55  a       -0.05648
     Occ.   38  a   ---  Virt.   57  a        0.12925
     Occ.   38  a   ---  Virt.   58  a        0.12478
  ----------------------------------------------------------------------------
  Root  38 singlet a              0.501540944 a.u.               13.6476 eV 
  ----------------------------------------------------------------------------
     Transition Moments    X  0.00000   Y  0.00001   Z -0.00000
     Transition Moments   XX -0.00003  XY  0.00013  XZ  0.00010
     Transition Moments   YY  0.00001  YZ  0.00005  ZZ  0.00002
     Dipole Oscillator Strength                    0.0000000001
     Electric Quadrupole                           0.0000000000
     Magnetic Dipole                               0.0000013633
     Total Oscillator Strength                     0.0000013634

     Occ.   22  a   ---  Virt.   52  a        0.06696
     Occ.   24  a   ---  Virt.   54  a        0.05390
     Occ.   26  a   ---  Virt.   39  a        0.12686
     Occ.   26  a   ---  Virt.   42  a        0.05087
     Occ.   28  a   ---  Virt.   42  a       -0.05795
     Occ.   30  a   ---  Virt.   40  a        0.05582
     Occ.   30  a   ---  Virt.   42  a       -0.05030
     Occ.   30  a   ---  Virt.   56  a        0.05473
     Occ.   31  a   ---  Virt.   40  a       -0.24304
     Occ.   31  a   ---  Virt.   41  a        0.05152
     Occ.   31  a   ---  Virt.   42  a       -0.08942
     Occ.   31  a   ---  Virt.   43  a       -0.11932
     Occ.   31  a   ---  Virt.   44  a       -0.16864
     Occ.   31  a   ---  Virt.   49  a        0.05700
     Occ.   31  a   ---  Virt.   53  a        0.06109
     Occ.   31  a   ---  Virt.   57  a        0.05509
     Occ.   32  a   ---  Virt.   40  a        0.22605
     Occ.   32  a   ---  Virt.   41  a        0.33337
     Occ.   32  a   ---  Virt.   42  a       -0.14233
     Occ.   32  a   ---  Virt.   43  a        0.20079
     Occ.   32  a   ---  Virt.   44  a       -0.10271
     Occ.   32  a   ---  Virt.   45  a       -0.25345
     Occ.   32  a   ---  Virt.   50  a        0.09082
     Occ.   32  a   ---  Virt.   56  a       -0.07322
     Occ.   33  a   ---  Virt.   43  a        0.05684
     Occ.   33  a   ---  Virt.   44  a        0.10143
     Occ.   34  a   ---  Virt.   39  a        0.09047
     Occ.   34  a   ---  Virt.   43  a       -0.13280
     Occ.   34  a   ---  Virt.   44  a        0.08776
     Occ.   34  a   ---  Virt.   45  a       -0.13557
     Occ.   34  a   ---  Virt.   46  a        0.20648
     Occ.   34  a   ---  Virt.   60  a        0.06976
     Occ.   34  a   ---  Virt.   61  a       -0.05395
     Occ.   35  a   ---  Virt.   44  a       -0.15603
     Occ.   36  a   ---  Virt.   47  a        0.07565
     Occ.   36  a   ---  Virt.   48  a       -0.10136
     Occ.   36  a   ---  Virt.   52  a        0.06051
     Occ.   36  a   ---  Virt.   53  a       -0.12594
     Occ.   36  a   ---  Virt.   54  a        0.15721
     Occ.   36  a   ---  Virt.   55  a        0.09364
     Occ.   36  a   ---  Virt.   57  a        0.08295
     Occ.   36  a   ---  Virt.   58  a       -0.06123
     Occ.   36  a   ---  Virt.   59  a        0.07901
     Occ.   37  a   ---  Virt.   47  a       -0.07547
     Occ.   37  a   ---  Virt.   48  a       -0.08516
     Occ.   37  a   ---  Virt.   52  a       -0.23887
     Occ.   37  a   ---  Virt.   53  a       -0.06580
     Occ.   37  a   ---  Virt.   54  a       -0.06446
     Occ.   37  a   ---  Virt.   55  a        0.05249
     Occ.   37  a   ---  Virt.   58  a        0.05843
     Occ.   37  a   ---  Virt.   59  a        0.06837
     Occ.   38  a   ---  Virt.   48  a        0.12049
     Occ.   38  a   ---  Virt.   50  a       -0.06289
     Occ.   38  a   ---  Virt.   52  a       -0.11299
     Occ.   38  a   ---  Virt.   53  a       -0.12545
     Occ.   38  a   ---  Virt.   54  a        0.12564
     Occ.   38  a   ---  Virt.   56  a        0.13452
     Occ.   38  a   ---  Virt.   59  a       -0.09498
  ----------------------------------------------------------------------------
  Root  39 singlet a              0.501541250 a.u.               13.6476 eV 
  ----------------------------------------------------------------------------
     Transition Moments    X  0.00000   Y -0.00001   Z  0.00001
     Transition Moments   XX  0.00001  XY  0.00002  XZ  0.00008
     Transition Moments   YY -0.00001  YZ  0.00003  ZZ  0.00000
     Dipole Oscillator Strength                    0.0000000001
     Electric Quadrupole                           0.0000000000
     Magnetic Dipole                               0.0000013636
     Total Oscillator Strength                     0.0000013637

     Occ.   23  a   ---  Virt.   54  a        0.05760
     Occ.   24  a   ---  Virt.   53  a       -0.05687
     Occ.   25  a   ---  Virt.   39  a       -0.12643
     Occ.   25  a   ---  Virt.   41  a        0.06423
     Occ.   28  a   ---  Virt.   41  a       -0.05343
     Occ.   28  a   ---  Virt.   42  a        0.05887
     Occ.   29  a   ---  Virt.   40  a       -0.07289
     Occ.   31  a   ---  Virt.   40  a       -0.21933
     Occ.   31  a   ---  Virt.   41  a        0.07735
     Occ.   31  a   ---  Virt.   42  a        0.32947
     Occ.   31  a   ---  Virt.   43  a        0.08906
     Occ.   31  a   ---  Virt.   44  a       -0.10516
     Occ.   31  a   ---  Virt.   45  a        0.28908
     Occ.   31  a   ---  Virt.   51  a       -0.07843
     Occ.   31  a   ---  Virt.   56  a        0.07143
     Occ.   32  a   ---  Virt.   40  a        0.19566
     Occ.   32  a   ---  Virt.   41  a       -0.14024
     Occ.   32  a   ---  Virt.   42  a        0.17791
     Occ.   32  a   ---  Virt.   43  a        0.09379
     Occ.   32  a   ---  Virt.   44  a        0.21051
     Occ.   32  a   ---  Virt.   45  a        0.05823
     Occ.   32  a   ---  Virt.   49  a       -0.05809
     Occ.   32  a   ---  Virt.   52  a       -0.06854
     Occ.   32  a   ---  Virt.   57  a       -0.05625
     Occ.   33  a   ---  Virt.   39  a       -0.08893
     Occ.   33  a   ---  Virt.   43  a       -0.21071
     Occ.   33  a   ---  Virt.   44  a        0.06720
     Occ.   33  a   ---  Virt.   45  a        0.07011
     Occ.   33  a   ---  Virt.   46  a       -0.20296
     Occ.   33  a   ---  Virt.   60  a       -0.06857
     Occ.   34  a   ---  Virt.   43  a       -0.06051
     Occ.   34  a   ---  Virt.   44  a       -0.13093
     Occ.   35  a   ---  Virt.   45  a       -0.08049
     Occ.   36  a   ---  Virt.   47  a       -0.13984
     Occ.   36  a   ---  Virt.   49  a       -0.05424
     Occ.   36  a   ---  Virt.   51  a        0.05918
     Occ.   36  a   ---  Virt.   52  a        0.07907
     Occ.   36  a   ---  Virt.   53  a       -0.08819
     Occ.   36  a   ---  Virt.   54  a        0.12000
     Occ.   36  a   ---  Virt.   55  a        0.08931
     Occ.   36  a   ---  Virt.   57  a       -0.09840
     Occ.   36  a   ---  Virt.   58  a        0.11102
     Occ.   37  a   ---  Virt.   47  a       -0.06308
     Occ.   37  a   ---  Virt.   48  a       -0.12267
     Occ.   37  a   ---  Virt.   50  a       -0.07075
     Occ.   37  a   ---  Virt.   52  a        0.09438
     Occ.   37  a   ---  Virt.   53  a        0.15330
     Occ.   37  a   ---  Virt.   56  a        0.12732
     Occ.   37  a   ---  Virt.   59  a        0.09785
     Occ.   38  a   ---  Virt.   47  a       -0.06002
     Occ.   38  a   ---  Virt.   53  a       -0.17961
     Occ.   38  a   ---  Virt.   54  a       -0.24190
  ----------------------------------------------------------------------------
  Root  40 singlet a              0.513306542 a.u.               13.9678 eV 
  ----------------------------------------------------------------------------
     Transition Moments    X -0.23524   Y -0.24038   Z -0.61743
     Transition Moments   XX  0.00012  XY  5.47800  XZ  2.13257
     Transition Moments   YY -0.00009  YZ  2.08724  ZZ  0.00003
     Dipole Oscillator Strength                    0.1691654037
     Electric Quadrupole                           0.0000280256
     Magnetic Dipole                               0.0000000000
     Total Oscillator Strength                     0.1691934292

     Occ.   21  a   ---  Virt.   43  a        0.06574
     Occ.   22  a   ---  Virt.   39  a        0.06622
     Occ.   23  a   ---  Virt.   39  a        0.06592
     Occ.   24  a   ---  Virt.   39  a       -0.12266
     Occ.   25  a   ---  Virt.   41  a       -0.06253
     Occ.   25  a   ---  Virt.   42  a        0.05438
     Occ.   26  a   ---  Virt.   40  a        0.11806
     Occ.   26  a   ---  Virt.   42  a       -0.08198
     Occ.   26  a   ---  Virt.   45  a        0.07791
     Occ.   27  a   ---  Virt.   40  a        0.08551
     Occ.   27  a   ---  Virt.   41  a       -0.08746
     Occ.   27  a   ---  Virt.   42  a        0.05091
     Occ.   27  a   ---  Virt.   44  a       -0.07314
     Occ.   28  a   ---  Virt.   43  a       -0.06125
     Occ.   28  a   ---  Virt.   44  a        0.08271
     Occ.   29  a   ---  Virt.   43  a        0.06850
     Occ.   29  a   ---  Virt.   44  a        0.07143
     Occ.   30  a   ---  Virt.   39  a        0.15438
     Occ.   30  a   ---  Virt.   43  a       -0.08255
     Occ.   30  a   ---  Virt.   45  a        0.05583
     Occ.   30  a   ---  Virt.   46  a        0.15013
     Occ.   30  a   ---  Virt.   48  a       -0.06768
     Occ.   32  a   ---  Virt.   42  a       -0.05297
     Occ.   32  a   ---  Virt.   51  a        0.05867
     Occ.   33  a   ---  Virt.   41  a       -0.06085
     Occ.   33  a   ---  Virt.   44  a        0.06785
     Occ.   33  a   ---  Virt.   47  a       -0.11853
     Occ.   34  a   ---  Virt.   40  a        0.09997
     Occ.   34  a   ---  Virt.   41  a        0.08343
     Occ.   34  a   ---  Virt.   42  a       -0.12155
     Occ.   34  a   ---  Virt.   45  a       -0.14106
     Occ.   34  a   ---  Virt.   47  a       -0.05447
     Occ.   34  a   ---  Virt.   48  a       -0.17156
     Occ.   34  a   ---  Virt.   50  a       -0.05291
     Occ.   35  a   ---  Virt.   40  a        0.13493
     Occ.   35  a   ---  Virt.   41  a       -0.08610
     Occ.   35  a   ---  Virt.   44  a        0.12794
     Occ.   35  a   ---  Virt.   47  a        0.34694
     Occ.   36  a   ---  Virt.   48  a        0.23148
     Occ.   36  a   ---  Virt.   49  a       -0.21195
     Occ.   36  a   ---  Virt.   59  a       -0.08017
     Occ.   37  a   ---  Virt.   47  a       -0.11943
     Occ.   37  a   ---  Virt.   48  a        0.08164
     Occ.   37  a   ---  Virt.   49  a        0.15107
     Occ.   37  a   ---  Virt.   50  a        0.21277
     Occ.   37  a   ---  Virt.   51  a       -0.21908
     Occ.   38  a   ---  Virt.   39  a       -0.05550
     Occ.   38  a   ---  Virt.   48  a        0.14567
     Occ.   38  a   ---  Virt.   49  a        0.27394
     Occ.   38  a   ---  Virt.   50  a       -0.27906
     Occ.   38  a   ---  Virt.   51  a        0.09017
     Occ.   38  a   ---  Virt.   59  a       -0.05005

              Target root =      1
          Target symmetry = none
      Ground state energy =   -387.863387992375
        Excitation energy =      0.405301164899
     Excited state energy =   -387.458086827477

  stored tddft:energy   -387.45808682747685     
 fn_civecs: ./adamant.civecs_singlet                                                                                                                                                                                                                                        
  open iostat                     0

  CI vectors are stored in ./adamant.civecs_singlet        

 Task  times  cpu:       51.1s     wall:       51.1s


                                NWChem Input Module
                                -------------------



  Limits (a.u.) specified for the density plot:
  ---------------------------------------------

        From        To      # of spacings
X    -9.44863     9.44863        50
Y    -9.44863     9.44863        50
Z    -9.44863     9.44863        50

  Total number of grid points =                132651

  1-st set of MOs      : ./adamant.movecs
  CIVECS file     : adamant.civecs_singlet
  Output is written to : root-1.cube
  Type of picture      : CHARGE DENSITY
  Format used          : Gaussian9x Cube
  Spin                 : TOTAL   
  The density is computed using all orbitals
  The density is computed on the specified grid
  Grid minima (bohr)  -9.448633 -9.448633 -9.448633
  Grid maxima (bohr)   9.448633  9.448633  9.448633
  Root:                     1
  *** tmom(2)***:    3.2964628993379930E-002
  *** tmom(3)***:    6.2556267358050352E-002
  *** tmom(4)***:    7.3519570581024554E-002
  max element    1.6676344986619979E-002

  Tol_rho              =                    0.10000E-39
  Sum of elements      =                        0.00000
  Integration volume   =                        0.05399
  Integrated Charge    =                        0.00000

 Task  times  cpu:        0.3s     wall:        0.3s


                                NWChem Input Module
                                -------------------


 Summary of allocated global arrays
-----------------------------------
  No active global arrays


MA_summarize_allocated_blocks: starting scan ...
MA_summarize_allocated_blocks: scan completed: 0 heap blocks, 0 stack blocks
MA usage statistics:

	allocation statistics:
					      heap	     stack
					      ----	     -----
	current number of blocks	         0	         0
	maximum number of blocks	        19	        34
	current total bytes		         0	         0
	maximum total bytes		  43040216	  22521736
	maximum total K-bytes		     43041	     22522
	maximum total M-bytes		        44	        23


                                     CITATION
                                     --------
                Please cite the following reference when publishing
                           results obtained with NWChem:

          E. Apra, E. J. Bylaska, W. A. de Jong, N. Govind, K. Kowalski,
       T. P. Straatsma, M. Valiev, H. J. J. van Dam, Y. Alexeev, J. Anchell,
       V. Anisimov, F. W. Aquino, R. Atta-Fynn, J. Autschbach, N. P. Bauman,
     J. C. Becca, D. E. Bernholdt, K. Bhaskaran-Nair, S. Bogatko, P. Borowski,
         J. Boschen, J. Brabec, A. Bruner, E. Cauet, Y. Chen, G. N. Chuev,
      C. J. Cramer, J. Daily, M. J. O. Deegan, T. H. Dunning Jr., M. Dupuis,
   K. G. Dyall, G. I. Fann, S. A. Fischer, A. Fonari, H. Fruchtl, L. Gagliardi,
      J. Garza, N. Gawande, S. Ghosh, K. Glaesemann, A. W. Gotz, J. Hammond,
       V. Helms, E. D. Hermes, K. Hirao, S. Hirata, M. Jacquelin, L. Jensen,
   B. G. Johnson, H. Jonsson, R. A. Kendall, M. Klemm, R. Kobayashi, V. Konkov,
      S. Krishnamoorthy, M. Krishnan, Z. Lin, R. D. Lins, R. J. Littlefield,
      A. J. Logsdail, K. Lopata, W. Ma, A. V. Marenich, J. Martin del Campo,
   D. Mejia-Rodriguez, J. E. Moore, J. M. Mullin, T. Nakajima, D. R. Nascimento,
    J. A. Nichols, P. J. Nichols, J. Nieplocha, A. Otero-de-la-Roza, B. Palmer,
    A. Panyala, T. Pirojsirikul, B. Peng, R. Peverati, J. Pittner, L. Pollack,
   R. M. Richard, P. Sadayappan, G. C. Schatz, W. A. Shelton, D. W. Silverstein,
   D. M. A. Smith, T. A. Soares, D. Song, M. Swart, H. L. Taylor, G. S. Thomas,
            V. Tipparaju, D. G. Truhlar, K. Tsemekhman, T. Van Voorhis,
      A. Vazquez-Mayagoitia, P. Verma, O. Villa, A. Vishnu, K. D. Vogiatzis,
        D. Wang, J. H. Weare, M. J. Williamson, T. L. Windus, K. Wolinski,
        A. T. Wong, Q. Wu, C. Yang, Q. Yu, M. Zacharias, Z. Zhang, Y. Zhao,
                                and R. J. Harrison
                        "NWChem: Past, present, and future
                         J. Chem. Phys. 152, 184102 (2020)
                               doi:10.1063/5.0004997

                                      AUTHORS
                                      -------
  E. Apra, E. J. Bylaska, N. Govind, K. Kowalski, M. Valiev, D. Mejia-Rodriguez,
       A. Kunitsa, N. P. Bauman, A. Panyala, W. A. de Jong, T. P. Straatsma,
   H. J. J. van Dam, D. Wang, T. L. Windus, J. Hammond, J. Autschbach, A. Woods,
    K. Bhaskaran-Nair, J. Brabec, K. Lopata, S. A. Fischer, S. Krishnamoorthy,
     M. Jacquelin, W. Ma, M. Klemm, O. Villa, Y. Chen, V. Anisimov, F. Aquino,
     S. Hirata, M. T. Hackler, E. Hermes, L. Jensen, J. E. Moore, J. C. Becca,
      V. Konjkov, T. Risthaus, M. Malagoli, A. Marenich, A. Otero-de-la-Roza,
        J. Mullin, P. Nichols, R. Peverati, J. Pittner, Y. Zhao, P.-D. Fan,
        A. Fonari, M. J. Williamson, R. J. Harrison, J. R. Rehr, M. Dupuis,
     D. Silverstein, D. M. A. Smith, J. Nieplocha, V. Tipparaju, M. Krishnan,
     B. E. Van Kuiken, A. Vazquez-Mayagoitia, M. Swart, Q. Wu, T. Van Voorhis,
     A. A. Auer, M. Nooijen, L. D. Crosby, E. Brown, G. Cisneros, G. I. Fann,
   H. Fruchtl, J. Garza, K. Hirao, R. A. Kendall, J. A. Nichols, K. Tsemekhman,
    K. Wolinski, J. Anchell, D. E. Bernholdt, P. Borowski, T. Clark, D. Clerc,
   H. Dachsel, M. J. O. Deegan, K. Dyall, D. Elwood, E. Glendening, M. Gutowski,
   A. C. Hess, J. Jaffe, B. G. Johnson, J. Ju, R. Kobayashi, R. Kutteh, Z. Lin,
   R. Littlefield, X. Long, B. Meng, T. Nakajima, S. Niu, L. Pollack, M. Rosing,
   K. Glaesemann, G. Sandrone, M. Stave, H. Taylor, G. Thomas, J. H. van Lenthe,
                               A. T. Wong, Z. Zhang.

 Total times  cpu:       54.3s     wall:       54.3s
