 argument  1 = input.nw
  NWChem w/ OpenMP: maximum threads =    1



============================== echo of input deck ==============================
echo
start adamant
geometry  units angstroms noautosym  noautoz
C         -0.19305        1.82219       -0.88212
C          0.69674        0.94007        0.00000
C         -0.19305        0.05795        0.88212
H          1.35905        0.32766       -0.61241
H          1.35905        1.55248        0.61241
C         -1.07517        0.94007        1.77192
C         -1.95729        1.82219        0.88212
H         -1.68758        0.32766        2.43422
H         -0.46276        1.55248        2.43422
C         -1.07517        2.71199        0.00000
H         -1.68758        3.37430       -0.61241
H         -0.46276        3.37430        0.61241
C         -1.07517        0.94007       -1.77192
H          0.43561        2.45085       -1.51078
C         -1.07517       -0.83185        0.00000
H          0.43561       -0.57071        1.51078
C         -1.95729        0.05795       -0.88212
H         -0.46276       -1.49415       -0.61241
H         -1.68758       -1.49415        0.61241
H         -2.58595       -0.57071       -1.51078
C         -2.84709        0.94007        0.00000
H         -1.68758        1.55248       -2.43422
H         -0.46276        0.32766       -2.43422
H         -3.50940        1.55248       -0.61241
H         -2.58595        2.45085        1.51078
H         -3.50940        0.32766        0.61241
 symmetry c1
end

basis
 *  library 6-31G
end

dft
 xc xpbe96 1.0 cpbe96 1.0
 mult 1
end

tddft
 rpa
 nroots 40
 singlet
 notriplet
 civecs
end

task tddft energy


dplot
 civecs adamant.civecs_singlet
 root 1
 LimitXYZ
  -5.0 5.0 50
  -5.0 5.0 50
  -5.0 5.0 50
   gaussian
   output root-1.cube
end
task dplot

================================================================================


                                         
                                         


             Northwest Computational Chemistry Package (NWChem) 7.2.1
             --------------------------------------------------------


                    Environmental Molecular Sciences Laboratory
                       Pacific Northwest National Laboratory
                                Richland, WA 99352

                              Copyright (c) 1994-2022
                       Pacific Northwest National Laboratory
                            Battelle Memorial Institute

             NWChem is an open-source computational chemistry package
                        distributed under the terms of the
                      Educational Community License (ECL) 2.0
             A copy of the license is included with this distribution
                              in the LICENSE.TXT file

                                  ACKNOWLEDGMENT
                                  --------------

            This software and its documentation were developed at the
            EMSL at Pacific Northwest National Laboratory, a multiprogram
            national laboratory, operated for the U.S. Department of Energy
            by Battelle under Contract Number DE-AC05-76RL01830. Support
            for this work was provided by the Department of Energy Office
            of Biological and Environmental Research, Office of Basic
            Energy Sciences, and the Office of Advanced Scientific Computing.


           Job information
           ---------------

    hostname        = cpn-m23-24.compute.cbls.ccr.buffalo.edu
    program         = nwchem
    date            = Sun Mar 24 11:40:03 2024

    compiled        = Wed_Jan_17_15:19:23_2024
    source          = /projects/academic/cyberwksp21/SOFTWARE_NEW_ENV/nwchem
    nwchem branch   = 7.2.1
    nwchem revision = v7.2.0-beta1-968-g8bfd0073a6
    ga revision     = 5.8.0
    use scalapack   = T
    input           = input.nw
    prefix          = adamant.
    data base       = ./adamant.db
    status          = startup
    nproc           =       11
    time left       =     -1s



           Memory information
           ------------------

    heap     =     26214396 doubles =      200.0 Mbytes
    stack    =     26214401 doubles =      200.0 Mbytes
    global   =     52428800 doubles =      400.0 Mbytes (distinct from heap & stack)
    total    =    104857597 doubles =      800.0 Mbytes
    verify   = yes
    hardfail = no 


           Directory information
           ---------------------

  0 permanent = .
  0 scratch   = .




                                NWChem Input Module
                                -------------------



 Scaling coordinates for geometry "geometry" by  1.889725989
 (inverse scale =  0.529177249)



                             Geometry "geometry" -> ""
                             -------------------------

 Output coordinates in angstroms (scale by  1.889725989 to convert to a.u.)

  No.       Tag          Charge          X              Y              Z
 ---- ---------------- ---------- -------------- -------------- --------------
    1 C                    6.0000     0.88212105     0.88211974    -0.88212000
    2 C                    6.0000     1.77191105    -0.00000026    -0.00000000
    3 C                    6.0000     0.88212105    -0.88212026     0.88212000
    4 H                    1.0000     2.43422105    -0.61241026    -0.61241000
    5 H                    1.0000     2.43422105     0.61240974     0.61241000
    6 C                    6.0000     0.00000105    -0.00000026     1.77192000
    7 C                    6.0000    -0.88211895     0.88211974     0.88212000
    8 H                    1.0000    -0.61240895    -0.61241026     2.43422000
    9 H                    1.0000     0.61241105     0.61240974     2.43422000
   10 C                    6.0000     0.00000105     1.77191974    -0.00000000
   11 H                    1.0000    -0.61240895     2.43422974    -0.61241000
   12 H                    1.0000     0.61241105     2.43422974     0.61241000
   13 C                    6.0000     0.00000105    -0.00000026    -1.77192000
   14 H                    1.0000     1.51078105     1.51077974    -1.51078000
   15 C                    6.0000     0.00000105    -1.77192026    -0.00000000
   16 H                    1.0000     1.51078105    -1.51078026     1.51078000
   17 C                    6.0000    -0.88211895    -0.88212026    -0.88212000
   18 H                    1.0000     0.61241105    -2.43422026    -0.61241000
   19 H                    1.0000    -0.61240895    -2.43422026     0.61241000
   20 H                    1.0000    -1.51077895    -1.51078026    -1.51078000
   21 C                    6.0000    -1.77191895    -0.00000026    -0.00000000
   22 H                    1.0000    -0.61240895     0.61240974    -2.43422000
   23 H                    1.0000     0.61241105    -0.61241026    -2.43422000
   24 H                    1.0000    -2.43422895     0.61240974    -0.61241000
   25 H                    1.0000    -1.51077895     1.51077974     1.51078000
   26 H                    1.0000    -2.43422895    -0.61241026     0.61241000

      Atomic Mass 
      ----------- 

      C                 12.000000
      H                  1.007825


 Effective nuclear repulsion energy (a.u.)     599.1399474866

            Nuclear Dipole moment (a.u.) 
            ----------------------------
        X                 Y               Z
 ---------------- ---------------- ----------------
     0.0000000000    -0.0000000000     0.0000000000


            XYZ format geometry
            -------------------
    26
 geometry
 C                     0.88212105     0.88211974    -0.88212000
 C                     1.77191105    -0.00000026    -0.00000000
 C                     0.88212105    -0.88212026     0.88212000
 H                     2.43422105    -0.61241026    -0.61241000
 H                     2.43422105     0.61240974     0.61241000
 C                     0.00000105    -0.00000026     1.77192000
 C                    -0.88211895     0.88211974     0.88212000
 H                    -0.61240895    -0.61241026     2.43422000
 H                     0.61241105     0.61240974     2.43422000
 C                     0.00000105     1.77191974    -0.00000000
 H                    -0.61240895     2.43422974    -0.61241000
 H                     0.61241105     2.43422974     0.61241000
 C                     0.00000105    -0.00000026    -1.77192000
 H                     1.51078105     1.51077974    -1.51078000
 C                     0.00000105    -1.77192026    -0.00000000
 H                     1.51078105    -1.51078026     1.51078000
 C                    -0.88211895    -0.88212026    -0.88212000
 H                     0.61241105    -2.43422026    -0.61241000
 H                    -0.61240895    -2.43422026     0.61241000
 H                    -1.51077895    -1.51078026    -1.51078000
 C                    -1.77191895    -0.00000026    -0.00000000
 H                    -0.61240895     0.61240974    -2.43422000
 H                     0.61241105    -0.61241026    -2.43422000
 H                    -2.43422895     0.61240974    -0.61241000
 H                    -1.51077895     1.51077974     1.51078000
 H                    -2.43422895    -0.61241026     0.61241000

 ==============================================================================
                                internuclear distances
 ------------------------------------------------------------------------------
       center one      |      center two      | atomic units |  angstroms
 ------------------------------------------------------------------------------
    2 C                |   1 C                |     2.89566  |     1.53232
    3 C                |   2 C                |     2.89566  |     1.53232
    4 H                |   2 C                |     2.06036  |     1.09030
    5 H                |   2 C                |     2.06036  |     1.09030
    6 C                |   3 C                |     2.89567  |     1.53232
    7 C                |   6 C                |     2.89567  |     1.53232
    8 H                |   6 C                |     2.06035  |     1.09029
    9 H                |   6 C                |     2.06035  |     1.09029
   10 C                |   1 C                |     2.89567  |     1.53232
   10 C                |   7 C                |     2.89567  |     1.53232
   11 H                |  10 C                |     2.06036  |     1.09030
   12 H                |  10 C                |     2.06036  |     1.09030
   13 C                |   1 C                |     2.89567  |     1.53232
   14 H                |   1 C                |     2.05767  |     1.08887
   15 C                |   3 C                |     2.89567  |     1.53232
   16 H                |   3 C                |     2.05767  |     1.08887
   17 C                |  13 C                |     2.89567  |     1.53232
   17 C                |  15 C                |     2.89567  |     1.53232
   18 H                |  15 C                |     2.06035  |     1.09029
   19 H                |  15 C                |     2.06035  |     1.09029
   20 H                |  17 C                |     2.05767  |     1.08887
   21 C                |   7 C                |     2.89567  |     1.53232
   21 C                |  17 C                |     2.89567  |     1.53232
   22 H                |  13 C                |     2.06035  |     1.09029
   23 H                |  13 C                |     2.06035  |     1.09029
   24 H                |  21 C                |     2.06036  |     1.09030
   25 H                |   7 C                |     2.05767  |     1.08887
   26 H                |  21 C                |     2.06036  |     1.09030
 ------------------------------------------------------------------------------
                         number of included internuclear distances:         28
 ==============================================================================



 ==============================================================================
                                 internuclear angles
 ------------------------------------------------------------------------------
        center 1       |       center 2       |       center 3       |  degrees
 ------------------------------------------------------------------------------
    2 C                |   1 C                |  10 C                |   109.70
    2 C                |   1 C                |  13 C                |   109.70
    2 C                |   1 C                |  14 H                |   109.24
   10 C                |   1 C                |  13 C                |   109.70
   10 C                |   1 C                |  14 H                |   109.24
   13 C                |   1 C                |  14 H                |   109.24
    1 C                |   2 C                |   3 C                |   109.00
    1 C                |   2 C                |   4 H                |   110.66
    1 C                |   2 C                |   5 H                |   110.66
    3 C                |   2 C                |   4 H                |   110.66
    3 C                |   2 C                |   5 H                |   110.66
    4 H                |   2 C                |   5 H                |   105.19
    2 C                |   3 C                |   6 C                |   109.70
    2 C                |   3 C                |  15 C                |   109.70
    2 C                |   3 C                |  16 H                |   109.24
    6 C                |   3 C                |  15 C                |   109.70
    6 C                |   3 C                |  16 H                |   109.24
   15 C                |   3 C                |  16 H                |   109.24
    3 C                |   6 C                |   7 C                |   109.00
    3 C                |   6 C                |   8 H                |   110.65
    3 C                |   6 C                |   9 H                |   110.65
    7 C                |   6 C                |   8 H                |   110.65
    7 C                |   6 C                |   9 H                |   110.65
    8 H                |   6 C                |   9 H                |   105.19
    6 C                |   7 C                |  10 C                |   109.70
    6 C                |   7 C                |  21 C                |   109.70
    6 C                |   7 C                |  25 H                |   109.24
   10 C                |   7 C                |  21 C                |   109.70
   10 C                |   7 C                |  25 H                |   109.24
   21 C                |   7 C                |  25 H                |   109.24
    1 C                |  10 C                |   7 C                |   109.00
    1 C                |  10 C                |  11 H                |   110.66
    1 C                |  10 C                |  12 H                |   110.66
    7 C                |  10 C                |  11 H                |   110.66
    7 C                |  10 C                |  12 H                |   110.66
   11 H                |  10 C                |  12 H                |   105.19
    1 C                |  13 C                |  17 C                |   109.00
    1 C                |  13 C                |  22 H                |   110.65
    1 C                |  13 C                |  23 H                |   110.65
   17 C                |  13 C                |  22 H                |   110.65
   17 C                |  13 C                |  23 H                |   110.65
   22 H                |  13 C                |  23 H                |   105.19
    3 C                |  15 C                |  17 C                |   109.00
    3 C                |  15 C                |  18 H                |   110.65
    3 C                |  15 C                |  19 H                |   110.65
   17 C                |  15 C                |  18 H                |   110.65
   17 C                |  15 C                |  19 H                |   110.65
   18 H                |  15 C                |  19 H                |   105.19
   13 C                |  17 C                |  15 C                |   109.70
   13 C                |  17 C                |  20 H                |   109.24
   13 C                |  17 C                |  21 C                |   109.70
   15 C                |  17 C                |  20 H                |   109.24
   15 C                |  17 C                |  21 C                |   109.70
   20 H                |  17 C                |  21 C                |   109.24
    7 C                |  21 C                |  17 C                |   109.00
    7 C                |  21 C                |  24 H                |   110.66
    7 C                |  21 C                |  26 H                |   110.66
   17 C                |  21 C                |  24 H                |   110.66
   17 C                |  21 C                |  26 H                |   110.66
   24 H                |  21 C                |  26 H                |   105.19
 ------------------------------------------------------------------------------
                            number of included internuclear angles:         60
 ==============================================================================





 Summary of "ao basis" -> "" (cartesian)
 ------------------------------------------------------------------------------
       Tag                 Description            Shells   Functions and Types
 ---------------- ------------------------------  ------  ---------------------
 *                           6-31G                    on all atoms 


  pbe96 is a nonlocal functional; adding pw91lda local functional. 
 tddft_input: filename not found; default name will be used

                                 NWChem DFT Module
                                 -----------------


                      Basis "ao basis" -> "ao basis" (cartesian)
                      -----
  C (Carbon)
  ----------
            Exponent  Coefficients 
       -------------- ---------------------------------------------------------
  1 S  3.04752490E+03  0.001835
  1 S  4.57369510E+02  0.014037
  1 S  1.03948690E+02  0.068843
  1 S  2.92101550E+01  0.232184
  1 S  9.28666300E+00  0.467941
  1 S  3.16392700E+00  0.362312

  2 S  7.86827240E+00 -0.119332
  2 S  1.88128850E+00 -0.160854
  2 S  5.44249300E-01  1.143456

  3 P  7.86827240E+00  0.068999
  3 P  1.88128850E+00  0.316424
  3 P  5.44249300E-01  0.744308

  4 S  1.68714400E-01  1.000000

  5 P  1.68714400E-01  1.000000

  H (Hydrogen)
  ------------
            Exponent  Coefficients 
       -------------- ---------------------------------------------------------
  1 S  1.87311370E+01  0.033495
  1 S  2.82539370E+00  0.234727
  1 S  6.40121700E-01  0.813757

  2 S  1.61277800E-01  1.000000



 Summary of "ao basis" -> "ao basis" (cartesian)
 ------------------------------------------------------------------------------
       Tag                 Description            Shells   Functions and Types
 ---------------- ------------------------------  ------  ---------------------
 C                           6-31G                   5        9   3s2p
 H                           6-31G                   2        2   2s




 Summary of "ao basis" -> "ao basis" (cartesian)
 ------------------------------------------------------------------------------
       Tag                 Description            Shells   Functions and Types
 ---------------- ------------------------------  ------  ---------------------
 C                           6-31G                   5        9   3s2p
 H                           6-31G                   2        2   2s


  Caching 1-el integrals 

            General Information
            -------------------
          SCF calculation type: DFT
          Wavefunction type:  closed shell.
          No. of atoms     :    26
          No. of electrons :    76
           Alpha electrons :    38
            Beta electrons :    38
          Charge           :     0
          Spin multiplicity:     1
          Use of symmetry is: off; symmetry adaption is: off
          Maximum number of iterations:  50
          AO basis - number of functions:   122
                     number of shells:    82
          Convergence on energy requested:  1.00D-06
          Convergence on density requested:  1.00D-05
          Convergence on gradient requested:  5.00D-04

              XC Information
              --------------
          PerdewBurkeErnzerhof Exchange Functional  1.000          
            Perdew 1991 LDA Correlation Functional  1.000 local    
           PerdewBurkeErnz. Correlation Functional  1.000 non-local

             Grid Information
             ----------------
          Grid used for XC integration:  medium    
          Radial quadrature: Mura-Knowles        
          Angular quadrature: Lebedev. 
          Tag              B.-S. Rad. Rad. Pts. Rad. Cut. Ang. Pts.
          ---              ---------- --------- --------- ---------
          C                   0.70       49          11.0       434
          H                   0.35       45          12.0       434
          Grid pruning is: on 
          Number of quadrature shells:  1210
          Spatial weights used:  Erf1

          Convergence Information
          -----------------------
          Convergence aids based upon iterative change in 
          total energy or number of iterations. 
          Levelshifting, if invoked, occurs when the 
          HOMO/LUMO gap drops below (HL_TOL):  1.00D-02
          DIIS, if invoked, will attempt to extrapolate 
          using up to (NFOCK): 10 stored Fock matrices.

                    Damping( 0%)  Levelshifting(0.5)       DIIS
                  --------------- ------------------- ---------------
          dE  on:    start            ASAP                start   
          dE off:    2 iters         50 iters            50 iters 


      Screening Tolerance Information
      -------------------------------
          Density screening/tol_rho:  1.00D-10
          AO Gaussian exp screening on grid/accAOfunc:  14
          CD Gaussian exp screening on grid/accCDfunc:  20
          XC Gaussian exp screening on grid/accXCfunc:  20
          Schwarz screening/accCoul:  1.00D-08


      Superposition of Atomic Density Guess
      -------------------------------------

 Sum of atomic energies:        -384.57426211

      Non-variational initial energy
      ------------------------------

 Total energy =    -392.757521
 1-e energy   =   -1704.959901
 2-e energy   =     713.062433
 HOMO         =      -0.302107
 LUMO         =       0.105158

   Time after variat. SCF:      1.4
   Time prior to 1st pass:      1.4
  avail0,avail1,avail0-avail1                197356               197356                    0
  avail0,avail1,avail0-avail1                197356               197356                    0
  avail0,avail1,avail0-avail1                197356               197356                    0
  avail0,avail1,avail0-avail1                197356               197356                    0

 Integral file          = ./adamant.aoints.00
 Record size in doubles =  65536        No. of integs per rec  =  43688
 Max. records in memory =     82        Max. records in file   =    280
 No. of bits per label  =      8        No. of bits per value  =     64


 #quartets = 4.796D+06 #integrals = 2.436D+07 #direct =  0.0% #cached =100.0%


File balance: exchanges=    14  moved=    17  time=   0.0

  avail0,avail1,avail0-avail1                197356               197356                    0
  avail0,avail1,avail0-avail1                197356               197356                    0
  avail0,avail1,avail0-avail1                197356               197356                    0
  avail0,avail1,avail0-avail1                197356               197356                    0

 Grid_pts file          = ./adamant.gridpts.00
 Record size in doubles =  12289        No. of grid_pts per rec  =   3070
 Max. records in memory =     19        Max. recs in file   =      1500

 Grid integrated density:      76.002712832265
 Requested integration accuracy:   0.10E-05

           Memory utilization after 1st SCF pass: 
           Heap Space remaining (MW):       20.60            20600548
          Stack Space remaining (MW):       26.21            26212828

   convergence    iter        energy       DeltaE   RMS-Dens  Diis-err    time
 ---------------- ----- ----------------- --------- --------- ---------  ------
 d= 0,ls=0.0,diis     1   -390.0081874739 -9.89D+02  8.21D-03  8.00D-01     3.5
 Grid integrated density:      76.002299227006
 Requested integration accuracy:   0.10E-05
 d= 0,ls=0.0,diis     2   -390.0886350900 -8.04D-02  2.26D-03  2.85D-02     4.0
 Grid integrated density:      76.002375072672
 Requested integration accuracy:   0.10E-05
 d= 0,ls=0.0,diis     3   -390.0877143138  9.21D-04  1.49D-03  3.77D-02     4.4
 Grid integrated density:      76.002382465343
 Requested integration accuracy:   0.10E-05
 d= 0,ls=0.0,diis     4   -390.0924138587 -4.70D-03  4.58D-04  9.94D-04     4.9
 Grid integrated density:      76.002368622342
 Requested integration accuracy:   0.10E-05
 d= 0,ls=0.0,diis     5   -390.0925421466 -1.28D-04  8.17D-05  1.26D-04     5.5
 Grid integrated density:      76.002368958296
 Requested integration accuracy:   0.10E-05
  Resetting Diis
 d= 0,ls=0.0,diis     6   -390.0925588779 -1.67D-05  1.46D-05  1.58D-06     6.0
 Grid integrated density:      76.002369441123
 Requested integration accuracy:   0.10E-05
 d= 0,ls=0.0,diis     7   -390.0925591157 -2.38D-07  8.68D-07  1.80D-09     6.5


         Total DFT energy =     -390.092559115744
      One electron energy =    -1714.499714995693
           Coulomb energy =      785.204306029663
    Exchange-Corr. energy =      -59.937097636306
 Nuclear repulsion energy =      599.139947486592

 Numeric. integr. density =       76.002369441123

     Total iterative time =      5.1s



                       DFT Final Molecular Orbital Analysis
                       ------------------------------------

 Vector    1  Occ=2.000000D+00  E=-9.880935D+00
              MO Center= -8.1D-01,  3.4D-01,  3.1D-01, r^2= 1.5D+00
   Bfn.  Coefficient  Atom+Function         Bfn.  Coefficient  Atom+Function  
  ----- ------------  ---------------      ----- ------------  ---------------
    41      0.813122   7 C  s                89     -0.541010  17 C  s         
     1     -0.161924   1 C  s                19     -0.108345   3 C  s         
    46     -0.050690   7 C  s                42      0.037990   7 C  s         
    94      0.033743  17 C  s                90     -0.025282  17 C  s         

 Vector    2  Occ=2.000000D+00  E=-9.880935D+00
              MO Center= -4.0D-03, -5.5D-03, -6.2D-01, r^2= 2.0D+00
   Bfn.  Coefficient  Atom+Function         Bfn.  Coefficient  Atom+Function  
  ----- ------------  ---------------      ----- ------------  ---------------
    89     -0.652543  17 C  s                 1      0.648439   1 C  s         
    19      0.270502   3 C  s                41     -0.268997   7 C  s         
    94      0.040674  17 C  s                 6     -0.040446   1 C  s         
    90     -0.030486  17 C  s                 2      0.030303   1 C  s         

 Vector    3  Occ=2.000000D+00  E=-9.880935D+00
              MO Center=  8.2D-01, -3.3D-01,  3.1D-01, r^2= 1.5D+00
   Bfn.  Coefficient  Atom+Function         Bfn.  Coefficient  Atom+Function  
  ----- ------------  ---------------      ----- ------------  ---------------
    19      0.811022   3 C  s                 1     -0.544679   1 C  s         
    89     -0.160790  17 C  s                41     -0.107383   7 C  s         
    24     -0.050579   3 C  s                20      0.037898   3 C  s         
     6      0.033952   1 C  s                 2     -0.025447   1 C  s         

 Vector    4  Occ=2.000000D+00  E=-9.880846D+00
              MO Center=  3.0D-03, -1.2D-03,  2.0D-06, r^2= 2.4D+00
   Bfn.  Coefficient  Atom+Function         Bfn.  Coefficient  Atom+Function  
  ----- ------------  ---------------      ----- ------------  ---------------
     1      0.498084   1 C  s                19      0.498787   3 C  s         
    41      0.496385   7 C  s                89      0.497088  17 C  s         

 Vector    5  Occ=2.000000D+00  E=-9.871127D+00
              MO Center= -1.6D-02,  1.7D-02,  1.6D-06, r^2= 3.2D+00
   Bfn.  Coefficient  Atom+Function         Bfn.  Coefficient  Atom+Function  
  ----- ------------  ---------------      ----- ------------  ---------------
   104      0.541097  21 C  s                10      0.533014   2 C  s         
    54     -0.451905  10 C  s                78     -0.441110  15 C  s         
    32     -0.088608   6 C  s                67     -0.088603  13 C  s         
   109     -0.028215  21 C  s                15     -0.027848   2 C  s         

 Vector    6  Occ=2.000000D+00  E=-9.871127D+00
              MO Center= -2.4D-03,  1.1D-02,  6.5D-05, r^2= 3.2D+00
   Bfn.  Coefficient  Atom+Function         Bfn.  Coefficient  Atom+Function  
  ----- ------------  ---------------      ----- ------------  ---------------
    32      0.566595   6 C  s                67      0.566563  13 C  s         
    54     -0.366942  10 C  s                78     -0.358088  15 C  s         
   104     -0.209531  21 C  s                10     -0.206369   2 C  s         
    37     -0.029617   6 C  s                72     -0.029615  13 C  s         
    33      0.025723   6 C  s                68      0.025721  13 C  s         

 Vector    7  Occ=2.000000D+00  E=-9.871076D+00
              MO Center=  9.0D-03,  1.9D-04,  1.4D-06, r^2= 3.2D+00
   Bfn.  Coefficient  Atom+Function         Bfn.  Coefficient  Atom+Function  
  ----- ------------  ---------------      ----- ------------  ---------------
    10      0.705576   2 C  s               104     -0.701994  21 C  s         
    15     -0.032155   2 C  s               109      0.031892  21 C  s         
    11      0.029817   2 C  s               105     -0.029628  21 C  s         

 Vector    8  Occ=2.000000D+00  E=-9.871076D+00
              MO Center=  3.1D-04, -1.5D-02,  5.9D-06, r^2= 3.2D+00
   Bfn.  Coefficient  Atom+Function         Bfn.  Coefficient  Atom+Function  
  ----- ------------  ---------------      ----- ------------  ---------------
    78     -0.706717  15 C  s                54      0.700789  10 C  s         
    83      0.032237  15 C  s                59     -0.031806  10 C  s         
    79     -0.029877  15 C  s                55      0.029566  10 C  s         

 Vector    9  Occ=2.000000D+00  E=-9.871076D+00
              MO Center=  1.1D-06, -2.8D-07, -4.0D-05, r^2= 3.2D+00
   Bfn.  Coefficient  Atom+Function         Bfn.  Coefficient  Atom+Function  
  ----- ------------  ---------------      ----- ------------  ---------------
    32      0.703838   6 C  s                67     -0.703854  13 C  s         
    37     -0.032025   6 C  s                72      0.032027  13 C  s         
    33      0.029725   6 C  s                68     -0.029725  13 C  s         

 Vector   10  Occ=2.000000D+00  E=-9.871024D+00
              MO Center=  8.6D-03, -1.4D-02, -3.4D-05, r^2= 3.2D+00
   Bfn.  Coefficient  Atom+Function         Bfn.  Coefficient  Atom+Function  
  ----- ------------  ---------------      ----- ------------  ---------------
    78      0.410556  15 C  s                10      0.407582   2 C  s         
    32      0.408060   6 C  s                67      0.408083  13 C  s         
    54      0.400919  10 C  s               104      0.401670  21 C  s         

 Vector   11  Occ=2.000000D+00  E=-7.902642D-01
              MO Center=  1.3D-05, -2.8D-06,  1.2D-08, r^2= 2.9D+00
   Bfn.  Coefficient  Atom+Function         Bfn.  Coefficient  Atom+Function  
  ----- ------------  ---------------      ----- ------------  ---------------
     2      0.134190   1 C  s                20      0.134190   3 C  s         
    42      0.134189   7 C  s                90      0.134189  17 C  s         
     6      0.117633   1 C  s                24      0.117633   3 C  s         
    46      0.117632   7 C  s                94      0.117632  17 C  s         
    11      0.115060   2 C  s                33      0.115058   6 C  s         

 Vector   12  Occ=2.000000D+00  E=-6.915233D-01
              MO Center=  1.6D-01,  2.9D-01, -9.3D-02, r^2= 3.6D+00
   Bfn.  Coefficient  Atom+Function         Bfn.  Coefficient  Atom+Function  
  ----- ------------  ---------------      ----- ------------  ---------------
     2      0.212616   1 C  s                 6      0.196639   1 C  s         
    33     -0.173193   6 C  s                68      0.173192  13 C  s         
    37     -0.156126   6 C  s                72      0.156125  13 C  s         
    42     -0.141406   7 C  s                46     -0.130780   7 C  s         
     1     -0.116496   1 C  s                11      0.100081   2 C  s         

 Vector   13  Occ=2.000000D+00  E=-6.915233D-01
              MO Center=  5.5D-02, -2.9D-01,  1.1D-01, r^2= 3.6D+00
   Bfn.  Coefficient  Atom+Function         Bfn.  Coefficient  Atom+Function  
  ----- ------------  ---------------      ----- ------------  ---------------
    20      0.200926   3 C  s                24      0.185826   3 C  s         
    11      0.181665   2 C  s               105     -0.181665  21 C  s         
    15      0.163763   2 C  s               109     -0.163763  21 C  s         
    90     -0.156228  17 C  s                94     -0.144488  17 C  s         
    19     -0.110091   3 C  s                10     -0.098602   2 C  s         

 Vector   14  Occ=2.000000D+00  E=-6.915230D-01
              MO Center= -2.2D-01, -4.3D-03, -1.3D-02, r^2= 3.7D+00
   Bfn.  Coefficient  Atom+Function         Bfn.  Coefficient  Atom+Function  
  ----- ------------  ---------------      ----- ------------  ---------------
    55      0.197031  10 C  s                79     -0.197032  15 C  s         
    59      0.177615  10 C  s                83     -0.177616  15 C  s         
    90     -0.172110  17 C  s                42      0.167067   7 C  s         
    94     -0.159176  17 C  s                46      0.154513   7 C  s         
    54     -0.106942  10 C  s                78      0.106942  15 C  s         

 Vector   15  Occ=2.000000D+00  E=-5.955127D-01
              MO Center= -1.1D-07,  2.0D-07,  5.2D-08, r^2= 4.7D+00
   Bfn.  Coefficient  Atom+Function         Bfn.  Coefficient  Atom+Function  
  ----- ------------  ---------------      ----- ------------  ---------------
    37      0.226775   6 C  s                72      0.226775  13 C  s         
    33      0.216928   6 C  s                68      0.216928  13 C  s         
    59     -0.156446  10 C  s                83     -0.156445  15 C  s         
    55     -0.149652  10 C  s                79     -0.149652  15 C  s         
    32     -0.114681   6 C  s                67     -0.114681  13 C  s         

 Vector   16  Occ=2.000000D+00  E=-5.955122D-01
              MO Center= -1.4D-05,  3.1D-07,  8.0D-09, r^2= 4.7D+00
   Bfn.  Coefficient  Atom+Function         Bfn.  Coefficient  Atom+Function  
  ----- ------------  ---------------      ----- ------------  ---------------
    15      0.221251   2 C  s               109      0.221254  21 C  s         
    11      0.211644   2 C  s               105      0.211646  21 C  s         
    59     -0.171535  10 C  s                83     -0.171534  15 C  s         
    55     -0.164085  10 C  s                79     -0.164085  15 C  s         
    10     -0.111887   2 C  s               104     -0.111889  21 C  s         

 Vector   17  Occ=2.000000D+00  E=-5.171111D-01
              MO Center=  3.7D-01,  2.8D-02, -2.0D-02, r^2= 4.6D+00
   Bfn.  Coefficient  Atom+Function         Bfn.  Coefficient  Atom+Function  
  ----- ------------  ---------------      ----- ------------  ---------------
     6      0.216039   1 C  s                24     -0.202775   3 C  s         
     2      0.182544   1 C  s                20     -0.171336   3 C  s         
    37      0.147765   6 C  s                72     -0.147764  13 C  s         
    13      0.118550   2 C  py               33      0.114456   6 C  s         
    68     -0.114456  13 C  s                76      0.108308  14 H  s         

 Vector   18  Occ=2.000000D+00  E=-5.171107D-01
              MO Center= -3.7D-01,  2.8D-02,  3.9D-02, r^2= 4.6D+00
   Bfn.  Coefficient  Atom+Function         Bfn.  Coefficient  Atom+Function  
  ----- ------------  ---------------      ----- ------------  ---------------
    46      0.218242   7 C  s                94     -0.200026  17 C  s         
    42      0.184405   7 C  s                90     -0.169013  17 C  s         
    59     -0.147923  10 C  s                83      0.147921  15 C  s         
   108      0.118530  21 C  pz               55     -0.114577  10 C  s         
    79      0.114576  15 C  s               119      0.109413  25 H  s         

 Vector   19  Occ=2.000000D+00  E=-5.171103D-01
              MO Center= -1.3D-03, -5.6D-02, -1.8D-02, r^2= 4.7D+00
   Bfn.  Coefficient  Atom+Function         Bfn.  Coefficient  Atom+Function  
  ----- ------------  ---------------      ----- ------------  ---------------
    15      0.181746   2 C  s               109     -0.181746  21 C  s         
    94      0.163977  17 C  s                24     -0.156915   3 C  s         
     6     -0.142577   1 C  s                11      0.140775   2 C  s         
   105     -0.140776  21 C  s                90      0.138552  17 C  s         
    46      0.135516   7 C  s                20     -0.132585   3 C  s         

 Vector   20  Occ=2.000000D+00  E=-4.687793D-01
              MO Center=  8.4D-06,  4.2D-06,  5.2D-08, r^2= 4.8D+00
   Bfn.  Coefficient  Atom+Function         Bfn.  Coefficient  Atom+Function  
  ----- ------------  ---------------      ----- ------------  ---------------
    12      0.143921   2 C  px               36      0.143919   6 C  pz        
    57      0.143919  10 C  py               71     -0.143919  13 C  pz        
    81     -0.143918  15 C  py              106     -0.143919  21 C  px        
    15      0.096317   2 C  s                37      0.096315   6 C  s         
    59      0.096316  10 C  s                72      0.096315  13 C  s         

 Vector   21  Occ=2.000000D+00  E=-3.983584D-01
              MO Center= -6.0D-05,  5.1D-07, -1.7D-09, r^2= 5.8D+00
   Bfn.  Coefficient  Atom+Function         Bfn.  Coefficient  Atom+Function  
  ----- ------------  ---------------      ----- ------------  ---------------
     6      0.196141   1 C  s                24      0.196141   3 C  s         
    46      0.196164   7 C  s                94      0.196164  17 C  s         
    76      0.145185  14 H  s                87      0.145185  16 H  s         
   102      0.145176  20 H  s               119      0.145176  25 H  s         
    15     -0.117788   2 C  s                37     -0.117803   6 C  s         

 Vector   22  Occ=2.000000D+00  E=-3.968407D-01
              MO Center=  1.8D-01, -1.6D-01, -2.0D-01, r^2= 4.9D+00
   Bfn.  Coefficient  Atom+Function         Bfn.  Coefficient  Atom+Function  
  ----- ------------  ---------------      ----- ------------  ---------------
    57      0.139457  10 C  py               81      0.139467  15 C  py        
   100     -0.135724  19 H  s                30     -0.133232   5 H  s         
   113     -0.131519  22 H  s                69      0.129342  13 C  px        
    70     -0.129095  13 C  py               13     -0.122904   2 C  py        
    14     -0.123320   2 C  pz               12     -0.121564   2 C  px        

 Vector   23  Occ=2.000000D+00  E=-3.968405D-01
              MO Center= -4.6D-02, -4.5D-02,  2.7D-01, r^2= 5.0D+00
   Bfn.  Coefficient  Atom+Function         Bfn.  Coefficient  Atom+Function  
  ----- ------------  ---------------      ----- ------------  ---------------
    12      0.150574   2 C  px               57      0.151140  10 C  py        
    81      0.151126  15 C  py              106      0.150562  21 C  px        
    34     -0.149362   6 C  px               35     -0.149354   6 C  py        
    98     -0.123776  18 H  s               117     -0.123696  24 H  s         
    28      0.107754   4 H  s                63      0.107832  11 H  s         

 Vector   24  Occ=2.000000D+00  E=-3.968399D-01
              MO Center= -1.4D-01,  2.0D-01, -6.9D-02, r^2= 5.0D+00
   Bfn.  Coefficient  Atom+Function         Bfn.  Coefficient  Atom+Function  
  ----- ------------  ---------------      ----- ------------  ---------------
    36      0.183256   6 C  pz               71      0.183248  13 C  pz        
    56     -0.137535  10 C  px               58     -0.136299  10 C  pz        
   115     -0.131910  23 H  s               107      0.122331  21 C  py        
   108     -0.120666  21 C  pz              121     -0.119400  26 H  s         
    65     -0.115067  12 H  s                92      0.095054  17 C  py        

 Vector   25  Occ=2.000000D+00  E=-3.522440D-01
              MO Center= -5.1D-02, -8.7D-02, -6.6D-02, r^2= 4.4D+00
   Bfn.  Coefficient  Atom+Function         Bfn.  Coefficient  Atom+Function  
  ----- ------------  ---------------      ----- ------------  ---------------
    69     -0.160571  13 C  px               80      0.161243  15 C  px        
    34     -0.156338   6 C  px               56      0.155665  10 C  px        
     4      0.154728   1 C  py               44     -0.154724   7 C  py        
    23     -0.138450   3 C  pz               45      0.138445   7 C  pz        
    82     -0.126160  15 C  pz              108      0.124665  21 C  pz        

 Vector   26  Occ=2.000000D+00  E=-3.522437D-01
              MO Center= -5.5D-03,  3.4D-03,  9.7D-02, r^2= 4.4D+00
   Bfn.  Coefficient  Atom+Function         Bfn.  Coefficient  Atom+Function  
  ----- ------------  ---------------      ----- ------------  ---------------
    35     -0.190753   6 C  py               13      0.187972   2 C  py        
   107      0.188269  21 C  py               70     -0.185497  13 C  py        
     5      0.167182   1 C  pz               93     -0.167180  17 C  pz        
    34     -0.119783   6 C  px               56      0.115651  10 C  px        
    80      0.115352  15 C  px               69     -0.111221  13 C  px        

 Vector   27  Occ=2.000000D+00  E=-3.522432D-01
              MO Center=  5.6D-02,  8.3D-02, -3.1D-02, r^2= 4.4D+00
   Bfn.  Coefficient  Atom+Function         Bfn.  Coefficient  Atom+Function  
  ----- ------------  ---------------      ----- ------------  ---------------
    14      0.185171   2 C  pz               58     -0.185917  10 C  pz        
    82     -0.181298  15 C  pz              108      0.182040  21 C  pz        
    22      0.157043   3 C  py               92     -0.157042  17 C  py        
    43     -0.138988   7 C  px               91      0.138990  17 C  px        
    56     -0.105791  10 C  px               63      0.103014  11 H  s         

 Vector   28  Occ=2.000000D+00  E=-3.364238D-01
              MO Center=  2.8D-03,  4.7D-02, -1.1D-02, r^2= 4.9D+00
   Bfn.  Coefficient  Atom+Function         Bfn.  Coefficient  Atom+Function  
  ----- ------------  ---------------      ----- ------------  ---------------
    12      0.162410   2 C  px              106      0.162409  21 C  px        
    15     -0.161553   2 C  s               109      0.161553  21 C  s         
     4      0.136923   1 C  py                5     -0.132302   1 C  pz        
    76      0.131774  14 H  s                44     -0.127203   7 C  py        
    82     -0.122587  15 C  pz               45     -0.119767   7 C  pz        

 Vector   29  Occ=2.000000D+00  E=-3.364232D-01
              MO Center=  6.0D-02, -8.9D-03,  2.6D-02, r^2= 4.9D+00
   Bfn.  Coefficient  Atom+Function         Bfn.  Coefficient  Atom+Function  
  ----- ------------  ---------------      ----- ------------  ---------------
    57     -0.157024  10 C  py               81     -0.157023  15 C  py        
    59      0.156196  10 C  s                83     -0.156196  15 C  s         
    21      0.148858   3 C  px               87      0.145024  16 H  s         
    23      0.144279   3 C  pz               22     -0.129383   3 C  py        
    88      0.129744  16 H  s                 3     -0.125460   1 C  px        

 Vector   30  Occ=2.000000D+00  E=-3.364228D-01
              MO Center= -6.3D-02, -3.8D-02, -1.5D-02, r^2= 4.9D+00
   Bfn.  Coefficient  Atom+Function         Bfn.  Coefficient  Atom+Function  
  ----- ------------  ---------------      ----- ------------  ---------------
    91      0.155150  17 C  px               36      0.153244   6 C  pz        
    71      0.153244  13 C  pz               37     -0.152438   6 C  s         
    72      0.152438  13 C  s               102     -0.152725  20 H  s         
    92      0.151794  17 C  py               93      0.138015  17 C  pz        
   103     -0.136635  20 H  s                13      0.124245   2 C  py        

 Vector   31  Occ=2.000000D+00  E=-2.834183D-01
              MO Center= -2.2D-06, -1.3D-06,  7.0D-08, r^2= 4.4D+00
   Bfn.  Coefficient  Atom+Function         Bfn.  Coefficient  Atom+Function  
  ----- ------------  ---------------      ----- ------------  ---------------
    57      0.267980  10 C  py               81     -0.267982  15 C  py        
    12     -0.183694   2 C  px              106      0.183695  21 C  px        
     4     -0.149002   1 C  py               22      0.149000   3 C  py        
    44     -0.149002   7 C  py               92      0.149000  17 C  py        
    61      0.140906  10 C  py               85     -0.140908  15 C  py        

 Vector   32  Occ=2.000000D+00  E=-2.834180D-01
              MO Center= -3.5D-06, -5.0D-07,  4.7D-08, r^2= 4.4D+00
   Bfn.  Coefficient  Atom+Function         Bfn.  Coefficient  Atom+Function  
  ----- ------------  ---------------      ----- ------------  ---------------
    36      0.260776   6 C  pz               71     -0.260776  13 C  pz        
    12     -0.203380   2 C  px              106      0.203382  21 C  px        
     5      0.144995   1 C  pz               23     -0.144995   3 C  pz        
    45     -0.144994   7 C  pz               93      0.144995  17 C  pz        
    40      0.137118   6 C  pz               75     -0.137118  13 C  pz        

 Vector   33  Occ=2.000000D+00  E=-2.737752D-01
              MO Center= -9.5D-02, -2.0D-01, -1.6D-01, r^2= 4.9D+00
   Bfn.  Coefficient  Atom+Function         Bfn.  Coefficient  Atom+Function  
  ----- ------------  ---------------      ----- ------------  ---------------
    35      0.193041   6 C  py               58     -0.193014  10 C  pz        
    70     -0.193224  13 C  py               82      0.193251  15 C  pz        
     4      0.134722   1 C  py               44     -0.134720   7 C  py        
    98     -0.134533  18 H  s               100      0.134535  19 H  s         
    99     -0.127247  18 H  s               101      0.127249  19 H  s         

 Vector   34  Occ=2.000000D+00  E=-2.737748D-01
              MO Center= -1.2D-01,  8.7D-02,  2.3D-01, r^2= 4.9D+00
   Bfn.  Coefficient  Atom+Function         Bfn.  Coefficient  Atom+Function  
  ----- ------------  ---------------      ----- ------------  ---------------
    14      0.190207   2 C  pz               34     -0.190409   6 C  px        
    69      0.190144  13 C  px              108     -0.190352  21 C  pz        
     5     -0.140389   1 C  pz               50      0.140195   8 H  s         
    52     -0.140194   9 H  s                93      0.140388  17 C  pz        
    35     -0.133558   6 C  py               58      0.133442  10 C  pz        

 Vector   35  Occ=2.000000D+00  E=-2.737740D-01
              MO Center=  2.2D-01,  1.2D-01, -7.1D-02, r^2= 4.9D+00
   Bfn.  Coefficient  Atom+Function         Bfn.  Coefficient  Atom+Function  
  ----- ------------  ---------------      ----- ------------  ---------------
    13      0.200618   2 C  py               56     -0.200560  10 C  px        
    80      0.200431  15 C  px              107     -0.200376  21 C  py        
    28     -0.139704   4 H  s                30      0.139705   5 H  s         
    43      0.139894   7 C  px               91     -0.139897  17 C  px        
    29     -0.132138   4 H  s                31      0.132139   5 H  s         

 Vector   36  Occ=2.000000D+00  E=-2.304190D-01
              MO Center=  2.0D-01,  1.4D-02, -1.6D-02, r^2= 4.9D+00
   Bfn.  Coefficient  Atom+Function         Bfn.  Coefficient  Atom+Function  
  ----- ------------  ---------------      ----- ------------  ---------------
    77      0.180630  14 H  s                13     -0.175154   2 C  py        
    88     -0.167248  16 H  s                 4      0.165662   1 C  py        
    14      0.164690   2 C  pz               22      0.164999   3 C  py        
    44      0.157001   7 C  py               92      0.157666  17 C  py        
    76      0.154719  14 H  s                 5     -0.144256   1 C  pz        

 Vector   37  Occ=2.000000D+00  E=-2.304182D-01
              MO Center= -2.0D-02,  7.7D-02,  9.2D-02, r^2= 4.9D+00
   Bfn.  Coefficient  Atom+Function         Bfn.  Coefficient  Atom+Function  
  ----- ------------  ---------------      ----- ------------  ---------------
    43      0.205128   7 C  px                3      0.202139   1 C  px        
    21      0.202630   3 C  px               91      0.199636  17 C  px        
    34     -0.179511   6 C  px               56     -0.176704  10 C  px        
   120     -0.172405  25 H  s                80     -0.148168  15 C  px        
   119     -0.147675  25 H  s                69     -0.145361  13 C  px        

 Vector   38  Occ=2.000000D+00  E=-2.304180D-01
              MO Center= -1.8D-01, -9.1D-02, -7.5D-02, r^2= 4.9D+00
   Bfn.  Coefficient  Atom+Function         Bfn.  Coefficient  Atom+Function  
  ----- ------------  ---------------      ----- ------------  ---------------
   103      0.203874  20 H  s               102      0.174629  20 H  s         
   108      0.167560  21 C  pz               93     -0.161428  17 C  pz        
    45     -0.157587   7 C  pz              107      0.155181  21 C  py        
    23     -0.153979   3 C  pz                5     -0.150139   1 C  pz        
    82      0.146958  15 C  pz               53      0.137369   9 H  s         

 Vector   39  Occ=0.000000D+00  E= 4.978409D-02
              MO Center=  8.1D-06,  1.1D-05,  9.9D-08, r^2= 9.1D+00
   Bfn.  Coefficient  Atom+Function         Bfn.  Coefficient  Atom+Function  
  ----- ------------  ---------------      ----- ------------  ---------------
    15      0.604718   2 C  s                37      0.604715   6 C  s         
    59      0.604720  10 C  s                72      0.604715  13 C  s         
    83      0.604716  15 C  s               109      0.604717  21 C  s         
    77     -0.451489  14 H  s                88     -0.451488  16 H  s         
   103     -0.451484  20 H  s               120     -0.451486  25 H  s         

 Vector   40  Occ=0.000000D+00  E= 1.069729D-01
              MO Center=  5.8D-01,  5.8D-01,  5.0D-01, r^2= 7.7D+00
   Bfn.  Coefficient  Atom+Function         Bfn.  Coefficient  Atom+Function  
  ----- ------------  ---------------      ----- ------------  ---------------
    31      0.916904   5 H  s                53      0.919332   9 H  s         
    66      0.916872  12 H  s               103     -0.574427  20 H  s         
    37     -0.559125   6 C  s                72      0.559130  13 C  s         
    15     -0.480761   2 C  s                59     -0.480605  10 C  s         
    83      0.480594  15 C  s               109      0.480771  21 C  s         

 Vector   41  Occ=0.000000D+00  E= 1.069731D-01
              MO Center=  1.7D-01, -2.3D-01, -7.8D-01, r^2= 7.9D+00
   Bfn.  Coefficient  Atom+Function         Bfn.  Coefficient  Atom+Function  
  ----- ------------  ---------------      ----- ------------  ---------------
    29      0.831869   4 H  s                99      0.826143  18 H  s         
   116      0.814445  23 H  s                15     -0.695145   2 C  s         
   109      0.695141  21 C  s               118     -0.651196  24 H  s         
    64     -0.645480  11 H  s               114     -0.624024  22 H  s         
    59      0.518056  10 C  s                83     -0.518049  15 C  s         

 Vector   42  Occ=0.000000D+00  E= 1.069734D-01
              MO Center= -7.5D-01, -3.5D-01,  2.8D-01, r^2= 7.9D+00
   Bfn.  Coefficient  Atom+Function         Bfn.  Coefficient  Atom+Function  
  ----- ------------  ---------------      ----- ------------  ---------------
    51      0.870873   8 H  s               101      0.866500  19 H  s         
   122      0.857605  26 H  s                37     -0.662481   6 C  s         
    72      0.662474  13 C  s               114     -0.579311  22 H  s         
    64     -0.574948  11 H  s               118     -0.550235  24 H  s         
    77     -0.541498  14 H  s                59      0.524811  10 C  s         

 Vector   43  Occ=0.000000D+00  E= 1.137995D-01
              MO Center= -1.2D-01, -5.4D-01, -1.9D-01, r^2= 8.4D+00
   Bfn.  Coefficient  Atom+Function         Bfn.  Coefficient  Atom+Function  
  ----- ------------  ---------------      ----- ------------  ---------------
    94      1.459354  17 C  s                24     -1.108882   3 C  s         
   103     -0.942535  20 H  s                88      0.716175  16 H  s         
    29      0.670452   4 H  s                51      0.633689   8 H  s         
    64      0.588785  11 H  s               122     -0.534778  26 H  s         
   116     -0.498015  23 H  s                 6     -0.447166   1 C  s         

 Vector   44  Occ=0.000000D+00  E= 1.137998D-01
              MO Center= -3.7D-01,  1.8D-01,  4.3D-01, r^2= 8.4D+00
   Bfn.  Coefficient  Atom+Function         Bfn.  Coefficient  Atom+Function  
  ----- ------------  ---------------      ----- ------------  ---------------
    46      1.522948   7 C  s               120     -0.983600  25 H  s         
    24     -0.846376   3 C  s                94     -0.728205  17 C  s         
   101      0.696395  19 H  s                31      0.643493   5 H  s         
   114      0.635545  22 H  s                88      0.546609  16 H  s         
   103      0.470336  20 H  s                66     -0.434489  12 H  s         

 Vector   45  Occ=0.000000D+00  E= 1.138001D-01
              MO Center=  4.9D-01,  3.6D-01, -2.4D-01, r^2= 8.4D+00
   Bfn.  Coefficient  Atom+Function         Bfn.  Coefficient  Atom+Function  
  ----- ------------  ---------------      ----- ------------  ---------------
     6      1.572856   1 C  s                77     -1.015817  14 H  s         
    24     -0.854700   3 C  s                53      0.706942   9 H  s         
    99      0.675617  18 H  s               118      0.657642  24 H  s         
    46     -0.589733   7 C  s                88      0.552027  16 H  s         
   116     -0.428832  23 H  s                66     -0.397520  12 H  s         

 Vector   46  Occ=0.000000D+00  E= 1.303746D-01
              MO Center=  9.3D-07, -9.9D-06, -2.3D-07, r^2= 8.0D+00
   Bfn.  Coefficient  Atom+Function         Bfn.  Coefficient  Atom+Function  
  ----- ------------  ---------------      ----- ------------  ---------------
    77      0.862187  14 H  s                88      0.862196  16 H  s         
   103      0.862202  20 H  s               120      0.862191  25 H  s         
    16      0.614245   2 C  px               40      0.614249   6 C  pz        
    61      0.614249  10 C  py               75     -0.614249  13 C  pz        
    85     -0.614247  15 C  py              110     -0.614241  21 C  px        

 Vector   47  Occ=0.000000D+00  E= 1.447919D-01
              MO Center= -8.7D-06,  4.8D-06,  1.3D-08, r^2= 7.8D+00
   Bfn.  Coefficient  Atom+Function         Bfn.  Coefficient  Atom+Function  
  ----- ------------  ---------------      ----- ------------  ---------------
    15      1.738244   2 C  s               109      1.738254  21 C  s         
    59     -1.575251  10 C  s                83     -1.575246  15 C  s         
    29     -0.543275   4 H  s                31     -0.543279   5 H  s         
   118     -0.543279  24 H  s               122     -0.543275  26 H  s         
     7     -0.529290   1 C  px               25     -0.529299   3 C  px        

 Vector   48  Occ=0.000000D+00  E= 1.447923D-01
              MO Center= -4.8D-07,  1.7D-06, -2.0D-08, r^2= 7.8D+00
   Bfn.  Coefficient  Atom+Function         Bfn.  Coefficient  Atom+Function  
  ----- ------------  ---------------      ----- ------------  ---------------
    37      1.913054   6 C  s                72      1.913054  13 C  s         
    59     -1.097691  10 C  s                83     -1.097687  15 C  s         
    15     -0.815360   2 C  s               109     -0.815365  21 C  s         
    51     -0.597908   8 H  s                53     -0.597910   9 H  s         
   114     -0.597910  22 H  s               116     -0.597908  23 H  s         

 Vector   49  Occ=0.000000D+00  E= 1.747562D-01
              MO Center=  3.0D-02, -3.1D-01,  1.3D-01, r^2= 9.3D+00
   Bfn.  Coefficient  Atom+Function         Bfn.  Coefficient  Atom+Function  
  ----- ------------  ---------------      ----- ------------  ---------------
    15      1.454021   2 C  s               109     -1.454000  21 C  s         
    24     -1.184728   3 C  s                88      1.016755  16 H  s         
    94      1.012859  17 C  s               103     -0.869248  20 H  s         
    46      0.770790   7 C  s               122      0.760362  26 H  s         
    29     -0.731696   4 H  s                31     -0.691400   5 H  s         

 Vector   50  Occ=0.000000D+00  E= 1.747564D-01
              MO Center=  2.8D-01,  4.0D-02, -1.9D-01, r^2= 9.3D+00
   Bfn.  Coefficient  Atom+Function         Bfn.  Coefficient  Atom+Function  
  ----- ------------  ---------------      ----- ------------  ---------------
    59      1.452903  10 C  s                83     -1.452961  15 C  s         
     6     -1.206663   1 C  s                77      1.035585  14 H  s         
    24      0.948386   3 C  s                94      0.833898  17 C  s         
    88     -0.813928  16 H  s                99      0.763614  18 H  s         
    66     -0.720552  12 H  s               103     -0.715664  20 H  s         

 Vector   51  Occ=0.000000D+00  E= 1.747568D-01
              MO Center= -3.1D-01,  2.7D-01,  6.5D-02, r^2= 9.2D+00
   Bfn.  Coefficient  Atom+Function         Bfn.  Coefficient  Atom+Function  
  ----- ------------  ---------------      ----- ------------  ---------------
    37      1.428815   6 C  s                72     -1.428802  13 C  s         
    46     -1.269327   7 C  s               120      1.089363  25 H  s         
    94      0.903007  17 C  s                 6      0.849665   1 C  s         
   103     -0.774972  20 H  s               114      0.764759  22 H  s         
    77     -0.729211  14 H  s                51     -0.703634   8 H  s         

 Vector   52  Occ=0.000000D+00  E= 1.826320D-01
              MO Center=  1.3D-01,  7.4D-01, -6.6D-02, r^2= 7.8D+00
   Bfn.  Coefficient  Atom+Function         Bfn.  Coefficient  Atom+Function  
  ----- ------------  ---------------      ----- ------------  ---------------
    64      1.036157  11 H  s                66     -1.036153  12 H  s         
    29     -0.753927   4 H  s                31      0.753850   5 H  s         
    60      0.749425  10 C  px               17     -0.652058   2 C  py        
   118     -0.629612  24 H  s               122      0.629689  26 H  s         
   111      0.609220  21 C  py               62      0.552535  10 C  pz        

 Vector   53  Occ=0.000000D+00  E= 1.826329D-01
              MO Center= -6.8D-02,  7.2D-03,  1.9D-01, r^2= 8.3D+00
   Bfn.  Coefficient  Atom+Function         Bfn.  Coefficient  Atom+Function  
  ----- ------------  ---------------      ----- ------------  ---------------
    51      0.852142   8 H  s                53     -0.852140   9 H  s         
   118      0.798882  24 H  s               122     -0.798889  26 H  s         
    29     -0.741882   4 H  s                31      0.741889   5 H  s         
    38      0.730531   6 C  px              112      0.712148  21 C  pz        
    18     -0.692477   2 C  pz              114     -0.688739  22 H  s         

 Vector   54  Occ=0.000000D+00  E= 1.826334D-01
              MO Center= -6.5D-02, -7.4D-01, -1.3D-01, r^2= 7.8D+00
   Bfn.  Coefficient  Atom+Function         Bfn.  Coefficient  Atom+Function  
  ----- ------------  ---------------      ----- ------------  ---------------
    99      1.038545  18 H  s               101     -1.038535  19 H  s         
    86      0.749090  15 C  pz              114      0.749963  22 H  s         
   116     -0.750028  23 H  s                74     -0.649576  13 C  py        
    51      0.629536   8 H  s                53     -0.629473   9 H  s         
    39      0.608020   6 C  py               84     -0.555858  15 C  px        

 Vector   55  Occ=0.000000D+00  E= 2.073273D-01
              MO Center= -4.9D-01,  2.8D-02,  2.9D-02, r^2= 5.6D+00
   Bfn.  Coefficient  Atom+Function         Bfn.  Coefficient  Atom+Function  
  ----- ------------  ---------------      ----- ------------  ---------------
    46      1.983237   7 C  s                94     -1.871371  17 C  s         
    59     -0.679404  10 C  s                83      0.679427  15 C  s         
    37     -0.660603   6 C  s                72      0.660582  13 C  s         
   112     -0.661586  21 C  pz              111     -0.653551  21 C  py        
    48     -0.643342   7 C  py               49     -0.641234   7 C  pz        

 Vector   56  Occ=0.000000D+00  E= 2.073280D-01
              MO Center=  2.0D-02,  1.1D-01, -1.6D-01, r^2= 5.8D+00
   Bfn.  Coefficient  Atom+Function         Bfn.  Coefficient  Atom+Function  
  ----- ------------  ---------------      ----- ------------  ---------------
     6      1.731644   1 C  s                94     -1.405644  17 C  s         
    46     -1.262014   7 C  s                24      0.935922   3 C  s         
    15     -0.927332   2 C  s               109      0.927358  21 C  s         
    16      0.868014   2 C  px              110      0.868238  21 C  px        
    74     -0.698228  13 C  py               62      0.684372  10 C  pz        

 Vector   57  Occ=0.000000D+00  E= 2.073282D-01
              MO Center=  4.7D-01, -1.4D-01,  1.4D-01, r^2= 5.6D+00
   Bfn.  Coefficient  Atom+Function         Bfn.  Coefficient  Atom+Function  
  ----- ------------  ---------------      ----- ------------  ---------------
    24      2.167824   3 C  s                 6     -1.607148   1 C  s         
    26      0.692109   3 C  py               27     -0.695388   3 C  pz        
    88      0.693183  16 H  s                37     -0.671051   6 C  s         
    72      0.671074  13 C  s                17      0.650316   2 C  py        
    25     -0.643737   3 C  px               59      0.641287  10 C  s         

 Vector   58  Occ=0.000000D+00  E= 2.104463D-01
              MO Center=  2.4D-05, -5.0D-06,  4.0D-09, r^2= 6.6D+00
   Bfn.  Coefficient  Atom+Function         Bfn.  Coefficient  Atom+Function  
  ----- ------------  ---------------      ----- ------------  ---------------
    16      0.856668   2 C  px              110     -0.856445  21 C  px        
    61     -0.704383  10 C  py               85      0.704249  15 C  py        
    29     -0.673222   4 H  s                31     -0.673172   5 H  s         
   118     -0.673141  24 H  s               122     -0.673192  26 H  s         
    64      0.553554  11 H  s                66      0.553480  12 H  s         

 Vector   59  Occ=0.000000D+00  E= 2.104468D-01
              MO Center=  3.9D-06, -3.3D-06, -2.8D-07, r^2= 6.6D+00
   Bfn.  Coefficient  Atom+Function         Bfn.  Coefficient  Atom+Function  
  ----- ------------  ---------------      ----- ------------  ---------------
    40      0.901177   6 C  pz               75     -0.901180  13 C  pz        
    51     -0.708281   8 H  s                53     -0.708210   9 H  s         
   114     -0.708240  22 H  s               116     -0.708252  23 H  s         
    61     -0.582487  10 C  py               85      0.582376  15 C  py        
     9     -0.483503   1 C  pz               27      0.483456   3 C  pz        

 Vector   60  Occ=0.000000D+00  E= 2.496280D-01
              MO Center= -1.6D-05, -5.0D-05, -3.1D-07, r^2= 6.4D+00
   Bfn.  Coefficient  Atom+Function         Bfn.  Coefficient  Atom+Function  
  ----- ------------  ---------------      ----- ------------  ---------------
     6      2.235469   1 C  s                24      2.235486   3 C  s         
    46      2.235416   7 C  s                94      2.235434  17 C  s         
    15     -1.468400   2 C  s                37     -1.468424   6 C  s         
    59     -1.468298  10 C  s                72     -1.468426  13 C  s         
    83     -1.468539  15 C  s               109     -1.468466  21 C  s         

 Vector   61  Occ=0.000000D+00  E= 2.536161D-01
              MO Center=  1.6D-01, -1.3D-02, -6.4D-03, r^2= 5.6D+00
   Bfn.  Coefficient  Atom+Function         Bfn.  Coefficient  Atom+Function  
  ----- ------------  ---------------      ----- ------------  ---------------
    37      1.509117   6 C  s                72     -1.509036  13 C  s         
    95      1.047659  17 C  px                8     -1.006253   1 C  py        
    47     -0.999004   7 C  px               40     -0.986932   6 C  pz        
    75     -0.986888  13 C  pz               27     -0.963441   3 C  pz        
    26     -0.950326   3 C  py                9     -0.907520   1 C  pz        

 Vector   62  Occ=0.000000D+00  E= 2.536167D-01
              MO Center= -1.4D-01, -5.5D-02,  1.1D-01, r^2= 5.5D+00
   Bfn.  Coefficient  Atom+Function         Bfn.  Coefficient  Atom+Function  
  ----- ------------  ---------------      ----- ------------  ---------------
    59      1.428953  10 C  s                83     -1.428745  15 C  s         
    25     -1.184251   3 C  px               97      1.176808  17 C  pz        
    48     -1.134882   7 C  py               61     -0.934498  10 C  py        
    85     -0.934385  15 C  py                7      0.732043   1 C  px        
    37     -0.708473   6 C  s                72      0.708669  13 C  s         

 Vector   63  Occ=0.000000D+00  E= 2.536167D-01
              MO Center= -2.1D-02,  6.7D-02, -1.0D-01, r^2= 5.6D+00
   Bfn.  Coefficient  Atom+Function         Bfn.  Coefficient  Atom+Function  
  ----- ------------  ---------------      ----- ------------  ---------------
    15      1.593763   2 C  s               109     -1.593677  21 C  s         
    49     -1.057447   7 C  pz               16     -1.042276   2 C  px        
    96      1.047397  17 C  py              110     -1.042242  21 C  px        
     7     -0.983082   1 C  px               27      0.810278   3 C  pz        
     8      0.763342   1 C  py               39      0.711601   6 C  py        

 Vector   64  Occ=0.000000D+00  E= 2.784510D-01
              MO Center= -1.7D-02,  1.4D-01, -9.7D-02, r^2= 5.9D+00
   Bfn.  Coefficient  Atom+Function         Bfn.  Coefficient  Atom+Function  
  ----- ------------  ---------------      ----- ------------  ---------------
    60      1.188813  10 C  px               73     -1.167509  13 C  px        
    38     -1.079970   6 C  px               84      1.058662  15 C  px        
     8     -0.944780   1 C  py               48      0.944778   7 C  py        
     9     -0.899685   1 C  pz               97      0.899687  17 C  pz        
    27      0.714446   3 C  pz               49     -0.714446   7 C  pz        

 Vector   65  Occ=0.000000D+00  E= 2.784513D-01
              MO Center= -4.2D-01, -1.2D-01,  1.2D-01, r^2= 5.7D+00
   Bfn.  Coefficient  Atom+Function         Bfn.  Coefficient  Atom+Function  
  ----- ------------  ---------------      ----- ------------  ---------------
    47      1.142206   7 C  px               95     -1.142205  17 C  px        
   111      1.064360  21 C  py              112      1.065773  21 C  pz        
    39     -0.871166   6 C  py               86     -0.873306  15 C  pz        
    26     -0.734911   3 C  py               27     -0.733372   3 C  pz        
    49      0.733367   7 C  pz               96      0.734904  17 C  py        

 Vector   66  Occ=0.000000D+00  E= 2.784527D-01
              MO Center=  4.4D-01, -2.3D-02, -2.4D-02, r^2= 5.8D+00
   Bfn.  Coefficient  Atom+Function         Bfn.  Coefficient  Atom+Function  
  ----- ------------  ---------------      ----- ------------  ---------------
     7      1.164407   1 C  px               25     -1.164407   3 C  px        
    17     -1.090594   2 C  py               18      1.081000   2 C  pz        
    74      0.832543  13 C  py               86     -0.818022  15 C  pz        
    39      0.803205   6 C  py               62     -0.788681  10 C  pz        
     9      0.618461   1 C  pz               97     -0.618410  17 C  pz        

 Vector   67  Occ=0.000000D+00  E= 5.334110D-01
              MO Center= -4.6D-01,  4.5D-04, -4.0D-04, r^2= 5.2D+00
   Bfn.  Coefficient  Atom+Function         Bfn.  Coefficient  Atom+Function  
  ----- ------------  ---------------      ----- ------------  ---------------
    40      0.685208   6 C  pz               75      0.685211  13 C  pz        
    61     -0.615914  10 C  py               85     -0.615923  15 C  py        
    37     -0.523112   6 C  s                72      0.523113  13 C  s         
    59      0.470223  10 C  s                83     -0.470216  15 C  s         
     6     -0.452290   1 C  s                24      0.452710   3 C  s         

 Vector   68  Occ=0.000000D+00  E= 5.334122D-01
              MO Center=  3.7D-05,  6.9D-03,  8.6D-03, r^2= 5.4D+00
   Bfn.  Coefficient  Atom+Function         Bfn.  Coefficient  Atom+Function  
  ----- ------------  ---------------      ----- ------------  ---------------
    16      0.921249   2 C  px              110      0.921275  21 C  px        
    15     -0.703325   2 C  s               109      0.703348  21 C  s         
    12     -0.500286   2 C  px              106     -0.500299  21 C  px        
    39     -0.345593   6 C  py               62     -0.345477  10 C  pz        
    74      0.344667  13 C  py               86      0.344723  15 C  pz        

 Vector   69  Occ=0.000000D+00  E= 5.334123D-01
              MO Center=  4.6D-01, -7.3D-03, -8.2D-03, r^2= 5.2D+00
   Bfn.  Coefficient  Atom+Function         Bfn.  Coefficient  Atom+Function  
  ----- ------------  ---------------      ----- ------------  ---------------
    61      0.685156  10 C  py               85      0.685166  15 C  py        
    40      0.615889   6 C  pz               75      0.615885  13 C  pz        
    59     -0.523082  10 C  s                83      0.523075  15 C  s         
    37     -0.470187   6 C  s                72      0.470186  13 C  s         
    46      0.456310   7 C  s                47      0.448899   7 C  px        

 Vector   70  Occ=0.000000D+00  E= 5.375824D-01
              MO Center=  6.8D-01, -2.3D-02, -2.1D-02, r^2= 5.8D+00
   Bfn.  Coefficient  Atom+Function         Bfn.  Coefficient  Atom+Function  
  ----- ------------  ---------------      ----- ------------  ---------------
    17      0.491147   2 C  py               18     -0.477171   2 C  pz        
     7      0.445549   1 C  px               25     -0.445553   3 C  px        
    13     -0.406285   2 C  py               14      0.402396   2 C  pz        
    84      0.325531  15 C  px               60     -0.313749  10 C  px        
    73     -0.290273  13 C  px                3     -0.287888   1 C  px        

 Vector   71  Occ=0.000000D+00  E= 5.375840D-01
              MO Center= -6.1D-01, -2.7D-01,  3.1D-01, r^2= 5.7D+00
   Bfn.  Coefficient  Atom+Function         Bfn.  Coefficient  Atom+Function  
  ----- ------------  ---------------      ----- ------------  ---------------
   112      0.466962  21 C  pz              111      0.451948  21 C  py        
    47     -0.422820   7 C  px               95      0.422825  17 C  px        
    38      0.386749   6 C  px              108     -0.385805  21 C  pz        
   107     -0.381618  21 C  py               84     -0.348944  15 C  px        
    27      0.324700   3 C  pz               49     -0.324688   7 C  pz        

 Vector   72  Occ=0.000000D+00  E= 5.375841D-01
              MO Center= -6.8D-02,  2.9D-01, -2.9D-01, r^2= 6.1D+00
   Bfn.  Coefficient  Atom+Function         Bfn.  Coefficient  Atom+Function  
  ----- ------------  ---------------      ----- ------------  ---------------
    62      0.464270  10 C  pz               74      0.463046  13 C  py        
     8     -0.370689   1 C  py                9     -0.369224   1 C  pz        
    48      0.370685   7 C  py               97      0.369225  17 C  pz        
    58     -0.353542  10 C  pz               70     -0.352306  13 C  py        
    39     -0.349055   6 C  py               86     -0.347868  15 C  pz        

 Vector   73  Occ=0.000000D+00  E= 5.873260D-01
              MO Center= -2.4D-05,  3.8D-06,  5.5D-08, r^2= 4.9D+00
   Bfn.  Coefficient  Atom+Function         Bfn.  Coefficient  Atom+Function  
  ----- ------------  ---------------      ----- ------------  ---------------
    16      0.439067   2 C  px               40      0.439159   6 C  pz        
    61      0.439149  10 C  py               75     -0.439159  13 C  pz        
    85     -0.439144  15 C  py              110     -0.439168  21 C  px        
    12     -0.343496   2 C  px               36     -0.343529   6 C  pz        
    57     -0.343524  10 C  py               71      0.343528  13 C  pz        

 Vector   74  Occ=0.000000D+00  E= 5.987951D-01
              MO Center= -5.5D-01,  7.7D-03,  6.8D-03, r^2= 4.7D+00
   Bfn.  Coefficient  Atom+Function         Bfn.  Coefficient  Atom+Function  
  ----- ------------  ---------------      ----- ------------  ---------------
    46      1.391036   7 C  s                94     -1.372830  17 C  s         
   111     -0.646952  21 C  py              112     -0.625797  21 C  pz        
    40      0.518957   6 C  pz               75      0.518953  13 C  pz        
    61      0.461239  10 C  py               85      0.461241  15 C  py        
    47      0.442202   7 C  px               37     -0.439917   6 C  s         

 Vector   75  Occ=0.000000D+00  E= 5.987957D-01
              MO Center=  5.5D-01,  5.5D-02, -6.2D-02, r^2= 4.7D+00
   Bfn.  Coefficient  Atom+Function         Bfn.  Coefficient  Atom+Function  
  ----- ------------  ---------------      ----- ------------  ---------------
     6      1.451482   1 C  s                24     -1.304590   3 C  s         
    18      0.645231   2 C  pz               17     -0.623887   2 C  py        
    61      0.517849  10 C  py               85      0.517844  15 C  py        
    40     -0.459600   6 C  pz               75     -0.459611  13 C  pz        
    73     -0.455365  13 C  px                7     -0.450311   1 C  px        

 Vector   76  Occ=0.000000D+00  E= 5.987958D-01
              MO Center=  3.1D-03, -6.3D-02,  5.5D-02, r^2= 5.0D+00
   Bfn.  Coefficient  Atom+Function         Bfn.  Coefficient  Atom+Function  
  ----- ------------  ---------------      ----- ------------  ---------------
    24      1.080575   3 C  s                94     -0.982804  17 C  s         
    46     -0.969392   7 C  s                 6      0.871694   1 C  s         
    16      0.692381   2 C  px              110      0.692352  21 C  px        
    39      0.592520   6 C  py               86     -0.594738  15 C  pz        
    15     -0.586902   2 C  s               109      0.586939  21 C  s         

 Vector   77  Occ=0.000000D+00  E= 6.382515D-01
              MO Center=  2.6D-07,  1.4D-05, -1.1D-07, r^2= 4.8D+00
   Bfn.  Coefficient  Atom+Function         Bfn.  Coefficient  Atom+Function  
  ----- ------------  ---------------      ----- ------------  ---------------
    59      1.037034  10 C  s                83      1.037008  15 C  s         
     8     -0.818405   1 C  py               26      0.818391   3 C  py        
    48     -0.818401   7 C  py               96      0.818388  17 C  py        
    37     -0.729387   6 C  s                72     -0.729387  13 C  s         
    61     -0.677677  10 C  py               85      0.677668  15 C  py        

 Vector   78  Occ=0.000000D+00  E= 6.382521D-01
              MO Center= -3.2D-06,  6.2D-07, -1.1D-07, r^2= 4.8D+00
   Bfn.  Coefficient  Atom+Function         Bfn.  Coefficient  Atom+Function  
  ----- ------------  ---------------      ----- ------------  ---------------
    15      1.019815   2 C  s               109      1.019801  21 C  s         
     7     -0.804864   1 C  px               25     -0.804862   3 C  px        
    47      0.804900   7 C  px               95      0.804899  17 C  px        
    37     -0.776383   6 C  s                72     -0.776383  13 C  s         
    16     -0.666397   2 C  px              110      0.666372  21 C  px        

 Vector   79  Occ=0.000000D+00  E= 6.444713D-01
              MO Center=  1.3D-05,  2.6D-06, -2.5D-08, r^2= 4.0D+00
   Bfn.  Coefficient  Atom+Function         Bfn.  Coefficient  Atom+Function  
  ----- ------------  ---------------      ----- ------------  ---------------
     6      0.882837   1 C  s                24      0.882834   3 C  s         
    46      0.882815   7 C  s                94      0.882813  17 C  s         
    16      0.581450   2 C  px               40      0.581335   6 C  pz        
    61      0.581372  10 C  py               75     -0.581336  13 C  pz        
    85     -0.581377  15 C  py              110     -0.581427  21 C  px        

 Vector   80  Occ=0.000000D+00  E= 6.852065D-01
              MO Center=  1.2D-06, -1.3D-05, -9.3D-08, r^2= 7.4D+00
   Bfn.  Coefficient  Atom+Function         Bfn.  Coefficient  Atom+Function  
  ----- ------------  ---------------      ----- ------------  ---------------
    40      1.409807   6 C  pz               75     -1.409807  13 C  pz        
    37      1.045418   6 C  s                72      1.045418  13 C  s         
    61     -0.924957  10 C  py               85      0.924984  15 C  py        
    59     -0.685864  10 C  s                83     -0.685872  15 C  s         
    51     -0.515195   8 H  s                53     -0.515192   9 H  s         

 Vector   81  Occ=0.000000D+00  E= 6.852095D-01
              MO Center= -1.6D-06, -1.8D-05, -5.9D-08, r^2= 7.4D+00
   Bfn.  Coefficient  Atom+Function         Bfn.  Coefficient  Atom+Function  
  ----- ------------  ---------------      ----- ------------  ---------------
    16      1.348018   2 C  px              110     -1.348039  21 C  px        
    61     -1.093882  10 C  py               85      1.093913  15 C  py        
    15      0.999550   2 C  s               109      0.999474  21 C  s         
    59     -0.811130  10 C  s                83     -0.811140  15 C  s         
    29     -0.492606   4 H  s                31     -0.492608   5 H  s         

 Vector   82  Occ=0.000000D+00  E= 6.980563D-01
              MO Center=  5.5D-02,  4.7D-02,  8.4D-02, r^2= 5.4D+00
   Bfn.  Coefficient  Atom+Function         Bfn.  Coefficient  Atom+Function  
  ----- ------------  ---------------      ----- ------------  ---------------
[...]
     Dipole Oscillator Strength                    0.0413844149
     Electric Quadrupole                           0.0000001652
     Magnetic Dipole                               0.0000000000
     Total Oscillator Strength                     0.0413845801

     Occ.   28  a   ---  Virt.   39  a    0.11306 X
     Occ.   36  a   ---  Virt.   42  a   -0.05215 X
     Occ.   37  a   ---  Virt.   46  a    0.98003 X
     Occ.   38  a   ---  Virt.   46  a   -0.07619 X
  ----------------------------------------------------------------------------
  Root  29 singlet a              0.363720750 a.u.                9.8973 eV 
  ----------------------------------------------------------------------------
     Transition Moments    X -0.01947   Y -0.31494   Z  0.26663
     Transition Moments   XX  0.00000  XY -0.51831  XZ  0.61221
     Transition Moments   YY -0.00000  YZ  0.03785  ZZ  0.00000
     Dipole Oscillator Strength                    0.0413824640
     Electric Quadrupole                           0.0000001652
     Magnetic Dipole                               0.0000000000
     Total Oscillator Strength                     0.0413826292

     Occ.   29  a   ---  Virt.   39  a   -0.10739 X
     Occ.   36  a   ---  Virt.   46  a    0.98296 X
     Occ.   37  a   ---  Virt.   42  a   -0.05109 X
  ----------------------------------------------------------------------------
  Root  30 singlet a              0.376137129 a.u.               10.2352 eV 
  ----------------------------------------------------------------------------
     Transition Moments    X  0.00001   Y -0.00003   Z -0.00002
     Transition Moments   XX  0.00000  XY  0.00004  XZ  0.00006
     Transition Moments   YY  0.00000  YZ -0.00003  ZZ -0.00001
     Dipole Oscillator Strength                    0.0000000003
     Electric Quadrupole                           0.0000000000
     Magnetic Dipole                               0.0000098193
     Total Oscillator Strength                     0.0000098196

     Occ.   33  a   ---  Virt.   45  a   -0.05505 X
     Occ.   34  a   ---  Virt.   44  a    0.05184 X
     Occ.   35  a   ---  Virt.   43  a    0.05069 X
     Occ.   36  a   ---  Virt.   47  a    0.40579 X
     Occ.   36  a   ---  Virt.   48  a    0.29487 X
     Occ.   37  a   ---  Virt.   47  a    0.19426 X
     Occ.   37  a   ---  Virt.   48  a   -0.15993 X
     Occ.   38  a   ---  Virt.   47  a    0.80751 X
     Occ.   38  a   ---  Virt.   48  a   -0.11478 X
  ----------------------------------------------------------------------------
  Root  31 singlet a              0.376137316 a.u.               10.2352 eV 
  ----------------------------------------------------------------------------
     Transition Moments    X -0.00001   Y -0.00000   Z -0.00001
     Transition Moments   XX -0.00000  XY  0.00004  XZ  0.00000
     Transition Moments   YY -0.00001  YZ  0.00001  ZZ  0.00001
     Dipole Oscillator Strength                    0.0000000001
     Electric Quadrupole                           0.0000000000
     Magnetic Dipole                               0.0000098193
     Total Oscillator Strength                     0.0000098194

     Occ.   35  a   ---  Virt.   45  a    0.06022 X
     Occ.   36  a   ---  Virt.   47  a    0.05381 X
     Occ.   36  a   ---  Virt.   48  a    0.09375 X
     Occ.   37  a   ---  Virt.   47  a    0.42379 X
     Occ.   37  a   ---  Virt.   48  a    0.83282 X
     Occ.   38  a   ---  Virt.   48  a   -0.30588 X
  ----------------------------------------------------------------------------
  Root  32 singlet a              0.376137757 a.u.               10.2352 eV 
  ----------------------------------------------------------------------------
     Transition Moments    X  0.00000   Y  0.00001   Z  0.00002
     Transition Moments   XX -0.00001  XY -0.00003  XZ -0.00002
     Transition Moments   YY -0.00000  YZ -0.00001  ZZ  0.00001
     Dipole Oscillator Strength                    0.0000000001
     Electric Quadrupole                           0.0000000000
     Magnetic Dipole                               0.0000098192
     Total Oscillator Strength                     0.0000098192

     Occ.   33  a   ---  Virt.   43  a    0.07647 X
     Occ.   36  a   ---  Virt.   47  a    0.65592 X
     Occ.   36  a   ---  Virt.   48  a   -0.53507 X
     Occ.   37  a   ---  Virt.   48  a    0.20628 X
     Occ.   38  a   ---  Virt.   48  a    0.46863 X
  ----------------------------------------------------------------------------
  Root  33 singlet a              0.378100536 a.u.               10.2886 eV 
  ----------------------------------------------------------------------------
     Transition Moments    X  0.11384   Y  0.00441   Z -0.00973
     Transition Moments   XX -0.00004  XY  0.02360  XZ -0.01070
     Transition Moments   YY  0.00001  YZ -0.27610  ZZ  0.00002
     Dipole Oscillator Strength                    0.0032956950
     Electric Quadrupole                           0.0000000221
     Magnetic Dipole                               0.0000000000
     Total Oscillator Strength                     0.0032957172

     Occ.   33  a   ---  Virt.   42  a    0.05041 X
     Occ.   34  a   ---  Virt.   42  a    0.06471 X
     Occ.   35  a   ---  Virt.   40  a    0.06673 X
     Occ.   37  a   ---  Virt.   47  a   -0.84944 X
     Occ.   37  a   ---  Virt.   48  a    0.37326 X
     Occ.   38  a   ---  Virt.   47  a    0.26483 X
     Occ.   38  a   ---  Virt.   48  a   -0.20504 X
  ----------------------------------------------------------------------------
  Root  34 singlet a              0.378100852 a.u.               10.2887 eV 
  ----------------------------------------------------------------------------
     Transition Moments    X -0.00936   Y  0.09141   Z -0.06806
     Transition Moments   XX  0.00002  XY  0.16506  XZ -0.22169
     Transition Moments   YY -0.00000  YZ  0.02272  ZZ  0.00001
     Dipole Oscillator Strength                    0.0032958491
     Electric Quadrupole                           0.0000000221
     Magnetic Dipole                               0.0000000000
     Total Oscillator Strength                     0.0032958712

     Occ.   33  a   ---  Virt.   41  a    0.07534 X
     Occ.   34  a   ---  Virt.   40  a    0.07219 X
     Occ.   36  a   ---  Virt.   47  a    0.52577 X
     Occ.   37  a   ---  Virt.   47  a   -0.07835 X
     Occ.   37  a   ---  Virt.   48  a   -0.26185 X
     Occ.   38  a   ---  Virt.   47  a   -0.37969 X
     Occ.   38  a   ---  Virt.   48  a   -0.69033 X
  ----------------------------------------------------------------------------
  Root  35 singlet a              0.378101347 a.u.               10.2887 eV 
  ----------------------------------------------------------------------------
     Transition Moments    X -0.00516   Y -0.06855   Z -0.09136
     Transition Moments   XX -0.00001  XY  0.22156  XZ  0.16624
     Transition Moments   YY  0.00000  YZ  0.01252  ZZ -0.00001
     Dipole Oscillator Strength                    0.0032953921
     Electric Quadrupole                           0.0000000221
     Magnetic Dipole                               0.0000000000
     Total Oscillator Strength                     0.0032954143

     Occ.   33  a   ---  Virt.   42  a    0.06285 X
     Occ.   34  a   ---  Virt.   42  a   -0.05922 X
     Occ.   35  a   ---  Virt.   41  a    0.07363 X
     Occ.   36  a   ---  Virt.   47  a   -0.32099 X
     Occ.   36  a   ---  Virt.   48  a   -0.76948 X
     Occ.   37  a   ---  Virt.   47  a    0.17020 X
     Occ.   37  a   ---  Virt.   48  a   -0.09554 X
     Occ.   38  a   ---  Virt.   47  a    0.33099 X
     Occ.   38  a   ---  Virt.   48  a   -0.36180 X
  ----------------------------------------------------------------------------
  Root  36 singlet a              0.380779817 a.u.               10.3616 eV 
  ----------------------------------------------------------------------------
     Transition Moments    X -0.00000   Y  0.00000   Z  0.00000
     Transition Moments   XX -0.00011  XY  0.00000  XZ  0.00000
     Transition Moments   YY  0.00020  YZ  0.00000  ZZ -0.00010
     Dipole Oscillator Strength                    0.0000000000
     Electric Quadrupole                           0.0000000000
     Magnetic Dipole                               0.0000000000
     Total Oscillator Strength                     0.0000000000

     Occ.   33  a   ---  Virt.   40  a   -0.54403 X
     Occ.   33  a   ---  Virt.   41  a   -0.18714 X
     Occ.   34  a   ---  Virt.   40  a   -0.18313 X
     Occ.   34  a   ---  Virt.   41  a    0.54509 X
     Occ.   34  a   ---  Virt.   42  a    0.05086 X
     Occ.   35  a   ---  Virt.   40  a    0.06015 X
     Occ.   35  a   ---  Virt.   42  a    0.57333 X
  ----------------------------------------------------------------------------
  Root  37 singlet a              0.382032790 a.u.               10.3956 eV 
  ----------------------------------------------------------------------------
     Transition Moments    X  0.00000   Y -0.00000   Z  0.00000
     Transition Moments   XX -0.00007  XY  0.00001  XZ  0.00008
     Transition Moments   YY  0.00023  YZ -0.00011  ZZ -0.00016
     Dipole Oscillator Strength                    0.0000000000
     Electric Quadrupole                           0.0000000000
     Magnetic Dipole                               0.0000005724
     Total Oscillator Strength                     0.0000005724

     Occ.   33  a   ---  Virt.   40  a    0.27772 X
     Occ.   33  a   ---  Virt.   41  a   -0.12723 X
     Occ.   33  a   ---  Virt.   42  a    0.23274 X
     Occ.   34  a   ---  Virt.   40  a    0.34457 X
     Occ.   34  a   ---  Virt.   41  a   -0.38840 X
     Occ.   34  a   ---  Virt.   42  a    0.13854 X
     Occ.   35  a   ---  Virt.   40  a   -0.24495 X
     Occ.   35  a   ---  Virt.   41  a    0.05991 X
     Occ.   35  a   ---  Virt.   42  a    0.69943 X
  ----------------------------------------------------------------------------
  Root  38 singlet a              0.382032914 a.u.               10.3956 eV 
  ----------------------------------------------------------------------------
     Transition Moments    X -0.00000   Y  0.00001   Z  0.00001
     Transition Moments   XX  0.00022  XY -0.00012  XZ -0.00019
     Transition Moments   YY  0.00010  YZ -0.00002  ZZ -0.00032
     Dipole Oscillator Strength                    0.0000000000
     Electric Quadrupole                           0.0000000000
     Magnetic Dipole                               0.0000005722
     Total Oscillator Strength                     0.0000005722

     Occ.   33  a   ---  Virt.   40  a   -0.17918 X
     Occ.   33  a   ---  Virt.   41  a   -0.28275 X
     Occ.   33  a   ---  Virt.   42  a   -0.41597 X
     Occ.   34  a   ---  Virt.   40  a    0.32165 X
     Occ.   34  a   ---  Virt.   41  a   -0.06581 X
     Occ.   34  a   ---  Virt.   42  a    0.43700 X
     Occ.   35  a   ---  Virt.   40  a    0.23162 X
     Occ.   35  a   ---  Virt.   41  a    0.58567 X
     Occ.   35  a   ---  Virt.   42  a   -0.09249 X
  ----------------------------------------------------------------------------
  Root  39 singlet a              0.382033173 a.u.               10.3957 eV 
  ----------------------------------------------------------------------------
     Transition Moments    X  0.00000   Y  0.00000   Z -0.00000
     Transition Moments   XX  0.00011  XY  0.00007  XZ -0.00003
     Transition Moments   YY -0.00006  YZ -0.00002  ZZ -0.00005
     Dipole Oscillator Strength                    0.0000000000
     Electric Quadrupole                           0.0000000000
     Magnetic Dipole                               0.0000005723
     Total Oscillator Strength                     0.0000005723

     Occ.   33  a   ---  Virt.   40  a   -0.71101 X
     Occ.   33  a   ---  Virt.   41  a    0.08918 X
     Occ.   33  a   ---  Virt.   42  a    0.20698 X
     Occ.   34  a   ---  Virt.   40  a   -0.13357 X
     Occ.   34  a   ---  Virt.   41  a   -0.61910 X
     Occ.   35  a   ---  Virt.   40  a   -0.14395 X
     Occ.   35  a   ---  Virt.   42  a   -0.10264 X
  ----------------------------------------------------------------------------
  Root  40 singlet a              0.382832763 a.u.               10.4174 eV 
  ----------------------------------------------------------------------------
     Transition Moments    X  0.00001   Y -0.00001   Z  0.00000
     Transition Moments   XX  1.19641  XY -0.00000  XZ  0.00012
     Transition Moments   YY -1.71411  YZ -0.00013  ZZ  0.51769
     Dipole Oscillator Strength                    0.0000000000
     Electric Quadrupole                           0.0000006928
     Magnetic Dipole                               0.0000000000
     Total Oscillator Strength                     0.0000006928

     Occ.   33  a   ---  Virt.   40  a   -0.05417 X
     Occ.   33  a   ---  Virt.   41  a   -0.38013 X
     Occ.   33  a   ---  Virt.   42  a    0.43320 X
     Occ.   33  a   ---  Virt.   43  a   -0.06070 X
     Occ.   33  a   ---  Virt.   44  a   -0.08363 X
     Occ.   33  a   ---  Virt.   45  a    0.15136 X
     Occ.   34  a   ---  Virt.   40  a    0.23699 X
     Occ.   34  a   ---  Virt.   41  a    0.28704 X
     Occ.   34  a   ---  Virt.   42  a    0.16013 X
     Occ.   34  a   ---  Virt.   43  a    0.11082 X
     Occ.   34  a   ---  Virt.   44  a    0.05201 X
     Occ.   35  a   ---  Virt.   40  a   -0.51773 X
     Occ.   35  a   ---  Virt.   42  a   -0.36536 X
     Occ.   35  a   ---  Virt.   43  a   -0.14809 X
     Occ.   35  a   ---  Virt.   44  a    0.07194 X
     Occ.   35  a   ---  Virt.   45  a   -0.11528 X

              Target root =      1
          Target symmetry = none
      Ground state energy =   -390.092559115744
        Excitation energy =      0.284144339407
     Excited state energy =   -389.808414776337

  stored tddft:energy   -389.80841477633680     
 fn_civecs: ./adamant.civecs_singlet                                                                                                                                                                                                                                        
  open iostat                     0

  CI vectors are stored in ./adamant.civecs_singlet        

 Task  times  cpu:      324.9s     wall:      324.9s


                                NWChem Input Module
                                -------------------



  Limits (a.u.) specified for the density plot:
  ---------------------------------------------

        From        To      # of spacings
X    -9.44863     9.44863        50
Y    -9.44863     9.44863        50
Z    -9.44863     9.44863        50

  Total number of grid points =                132651

  1-st set of MOs      : ./adamant.movecs
  CIVECS file     : adamant.civecs_singlet
  Output is written to : root-1.cube
  Type of picture      : CHARGE DENSITY
  Format used          : Gaussian9x Cube
  Spin                 : TOTAL   
  The density is computed using all orbitals
  The density is computed on the specified grid
  Grid minima (bohr)  -9.448633 -9.448633 -9.448633
  Grid maxima (bohr)   9.448633  9.448633  9.448633
  Root:                     1
  *** tmom(2)***:    4.5523088857094940E-002
  *** tmom(3)***:    7.7333887010176267E-002
  *** tmom(4)***:    9.3117226542364345E-002
  max element    1.3231399358865888E-002

  Tol_rho              =                    0.10000E-39
  Sum of elements      =                        0.00000
  Integration volume   =                        0.05399
  Integrated Charge    =                        0.00000

 Task  times  cpu:        0.3s     wall:        0.3s


                                NWChem Input Module
                                -------------------


 Summary of allocated global arrays
-----------------------------------
  No active global arrays


MA_summarize_allocated_blocks: starting scan ...
MA_summarize_allocated_blocks: scan completed: 0 heap blocks, 0 stack blocks
MA usage statistics:

	allocation statistics:
					      heap	     stack
					      ----	     -----
	current number of blocks	         0	         0
	maximum number of blocks	        21	        60
	current total bytes		         0	         0
	maximum total bytes		  44910528	  22521768
	maximum total K-bytes		     44911	     22522
	maximum total M-bytes		        45	        23


                                     CITATION
                                     --------
                Please cite the following reference when publishing
                           results obtained with NWChem:

          E. Apra, E. J. Bylaska, W. A. de Jong, N. Govind, K. Kowalski,
       T. P. Straatsma, M. Valiev, H. J. J. van Dam, Y. Alexeev, J. Anchell,
       V. Anisimov, F. W. Aquino, R. Atta-Fynn, J. Autschbach, N. P. Bauman,
     J. C. Becca, D. E. Bernholdt, K. Bhaskaran-Nair, S. Bogatko, P. Borowski,
         J. Boschen, J. Brabec, A. Bruner, E. Cauet, Y. Chen, G. N. Chuev,
      C. J. Cramer, J. Daily, M. J. O. Deegan, T. H. Dunning Jr., M. Dupuis,
   K. G. Dyall, G. I. Fann, S. A. Fischer, A. Fonari, H. Fruchtl, L. Gagliardi,
      J. Garza, N. Gawande, S. Ghosh, K. Glaesemann, A. W. Gotz, J. Hammond,
       V. Helms, E. D. Hermes, K. Hirao, S. Hirata, M. Jacquelin, L. Jensen,
   B. G. Johnson, H. Jonsson, R. A. Kendall, M. Klemm, R. Kobayashi, V. Konkov,
      S. Krishnamoorthy, M. Krishnan, Z. Lin, R. D. Lins, R. J. Littlefield,
      A. J. Logsdail, K. Lopata, W. Ma, A. V. Marenich, J. Martin del Campo,
   D. Mejia-Rodriguez, J. E. Moore, J. M. Mullin, T. Nakajima, D. R. Nascimento,
    J. A. Nichols, P. J. Nichols, J. Nieplocha, A. Otero-de-la-Roza, B. Palmer,
    A. Panyala, T. Pirojsirikul, B. Peng, R. Peverati, J. Pittner, L. Pollack,
   R. M. Richard, P. Sadayappan, G. C. Schatz, W. A. Shelton, D. W. Silverstein,
   D. M. A. Smith, T. A. Soares, D. Song, M. Swart, H. L. Taylor, G. S. Thomas,
            V. Tipparaju, D. G. Truhlar, K. Tsemekhman, T. Van Voorhis,
      A. Vazquez-Mayagoitia, P. Verma, O. Villa, A. Vishnu, K. D. Vogiatzis,
        D. Wang, J. H. Weare, M. J. Williamson, T. L. Windus, K. Wolinski,
        A. T. Wong, Q. Wu, C. Yang, Q. Yu, M. Zacharias, Z. Zhang, Y. Zhao,
                                and R. J. Harrison
                        "NWChem: Past, present, and future
                         J. Chem. Phys. 152, 184102 (2020)
                               doi:10.1063/5.0004997

                                      AUTHORS
                                      -------
  E. Apra, E. J. Bylaska, N. Govind, K. Kowalski, M. Valiev, D. Mejia-Rodriguez,
       A. Kunitsa, N. P. Bauman, A. Panyala, W. A. de Jong, T. P. Straatsma,
   H. J. J. van Dam, D. Wang, T. L. Windus, J. Hammond, J. Autschbach, A. Woods,
    K. Bhaskaran-Nair, J. Brabec, K. Lopata, S. A. Fischer, S. Krishnamoorthy,
     M. Jacquelin, W. Ma, M. Klemm, O. Villa, Y. Chen, V. Anisimov, F. Aquino,
     S. Hirata, M. T. Hackler, E. Hermes, L. Jensen, J. E. Moore, J. C. Becca,
      V. Konjkov, T. Risthaus, M. Malagoli, A. Marenich, A. Otero-de-la-Roza,
        J. Mullin, P. Nichols, R. Peverati, J. Pittner, Y. Zhao, P.-D. Fan,
        A. Fonari, M. J. Williamson, R. J. Harrison, J. R. Rehr, M. Dupuis,
     D. Silverstein, D. M. A. Smith, J. Nieplocha, V. Tipparaju, M. Krishnan,
     B. E. Van Kuiken, A. Vazquez-Mayagoitia, M. Swart, Q. Wu, T. Van Voorhis,
     A. A. Auer, M. Nooijen, L. D. Crosby, E. Brown, G. Cisneros, G. I. Fann,
   H. Fruchtl, J. Garza, K. Hirao, R. A. Kendall, J. A. Nichols, K. Tsemekhman,
    K. Wolinski, J. Anchell, D. E. Bernholdt, P. Borowski, T. Clark, D. Clerc,
   H. Dachsel, M. J. O. Deegan, K. Dyall, D. Elwood, E. Glendening, M. Gutowski,
   A. C. Hess, J. Jaffe, B. G. Johnson, J. Ju, R. Kobayashi, R. Kutteh, Z. Lin,
   R. Littlefield, X. Long, B. Meng, T. Nakajima, S. Niu, L. Pollack, M. Rosing,
   K. Glaesemann, G. Sandrone, M. Stave, H. Taylor, G. Thomas, J. H. van Lenthe,
                               A. T. Wong, Z. Zhang.

 Total times  cpu:      328.2s     wall:      328.2s
