 argument  1 = input.nw
  NWChem w/ OpenMP: maximum threads =    1



============================== echo of input deck ==============================
echo

title "optimization of LiF"

start LiF

#============= Define the basis ================
basis
 * library 6-311++G**
end

#============= Define the method ===============
# as singlet
scf
 rhf
 singlet
 thresh 1e-8
end

driver
 tight
 xyz
end

freq
 animate
end

ccsd
  maxiter 50
  freeze core
  thresh 1e-8
end


#============ Now do the geometry scan ===========

geometry units angstrom
Li        0.0000000000      0.0000000000      0.00066850000
F        0.0000000000      0.0000000000       1.50066850000
symmetry c1
end

task ccsd optimize
task ccsd frequencies




================================================================================


                                         
                                         


             Northwest Computational Chemistry Package (NWChem) 7.2.1
             --------------------------------------------------------


                    Environmental Molecular Sciences Laboratory
                       Pacific Northwest National Laboratory
                                Richland, WA 99352

                              Copyright (c) 1994-2022
                       Pacific Northwest National Laboratory
                            Battelle Memorial Institute

             NWChem is an open-source computational chemistry package
                        distributed under the terms of the
                      Educational Community License (ECL) 2.0
             A copy of the license is included with this distribution
                              in the LICENSE.TXT file

                                  ACKNOWLEDGMENT
                                  --------------

            This software and its documentation were developed at the
            EMSL at Pacific Northwest National Laboratory, a multiprogram
            national laboratory, operated for the U.S. Department of Energy
            by Battelle under Contract Number DE-AC05-76RL01830. Support
            for this work was provided by the Department of Energy Office
            of Biological and Environmental Research, Office of Basic
            Energy Sciences, and the Office of Advanced Scientific Computing.


           Job information
           ---------------

    hostname        = cpn-f13-36.core.ccr.buffalo.edu
    program         = nwchem
    date            = Sun Mar  3 18:49:41 2024

    compiled        = Wed_Jan_17_15:19:23_2024
    source          = /projects/academic/cyberwksp21/SOFTWARE_NEW_ENV/nwchem
    nwchem branch   = 7.2.1
    nwchem revision = v7.2.0-beta1-968-g8bfd0073a6
    ga revision     = 5.8.0
    use scalapack   = T
    input           = input.nw
    prefix          = LiF.
    data base       = ./LiF.db
    status          = startup
    nproc           =        3
    time left       =     -1s



           Memory information
           ------------------

    heap     =     26214396 doubles =      200.0 Mbytes
    stack    =     26214401 doubles =      200.0 Mbytes
    global   =     52428800 doubles =      400.0 Mbytes (distinct from heap & stack)
    total    =    104857597 doubles =      800.0 Mbytes
    verify   = yes
    hardfail = no 


           Directory information
           ---------------------

  0 permanent = .
  0 scratch   = .




                                NWChem Input Module
                                -------------------


                                optimization of LiF
                                -------------------


 Summary of "ao basis" -> "" (cartesian)
 ------------------------------------------------------------------------------
       Tag                 Description            Shells   Functions and Types
 ---------------- ------------------------------  ------  ---------------------
 *                         6-311++G**                 on all atoms 



 Scaling coordinates for geometry "geometry" by  1.889725989
 (inverse scale =  0.529177249)

 Turning off AUTOSYM since
 SYMMETRY directive was detected!


          ------
          auto-z
          ------
  no constraints, skipping    0.0000000000000000     
  no constraints, skipping    0.0000000000000000     


                             Geometry "geometry" -> ""
                             -------------------------

 Output coordinates in angstroms (scale by  1.889725989 to convert to a.u.)

  No.       Tag          Charge          X              Y              Z
 ---- ---------------- ---------- -------------- -------------- --------------
    1 Li                   3.0000     0.00000000     0.00000000    -1.12500000
    2 F                    9.0000     0.00000000     0.00000000     0.37500000

      Atomic Mass 
      ----------- 

      Li                 7.016000
      F                 18.998400


 Effective nuclear repulsion energy (a.u.)       9.5251904820

            Nuclear Dipole moment (a.u.) 
            ----------------------------
        X                 Y               Z
 ---------------- ---------------- ----------------
     0.0000000000     0.0000000000    -0.0000000000



                                Z-matrix (autoz)
                                -------- 

 Units are Angstrom for bonds and degrees for angles

      Type          Name      I     J     K     L     M      Value
      ----------- --------  ----- ----- ----- ----- ----- ----------
    1 Stretch                  1     2                       1.50000


            XYZ format geometry
            -------------------
     2
 geometry
 Li                    0.00000000     0.00000000    -1.12500000
 F                     0.00000000     0.00000000     0.37500000

 ==============================================================================
                                internuclear distances
 ------------------------------------------------------------------------------
       center one      |      center two      | atomic units |  angstroms
 ------------------------------------------------------------------------------
    2 F                |   1 Li               |     2.83459  |     1.50000
 ------------------------------------------------------------------------------
                         number of included internuclear distances:          1
 ==============================================================================





                           NWChem Geometry Optimization
                           ----------------------------




                                optimization of LiF


  no constraints, skipping    0.0000000000000000     
 maximum gradient threshold         (gmax) =   0.000015
 rms gradient threshold             (grms) =   0.000010
 maximum cartesian step threshold   (xmax) =   0.000060
 rms cartesian step threshold       (xrms) =   0.000040
 fixed trust radius                (trust) =   0.300000
 maximum step size to saddle      (sadstp) =   0.100000
 energy precision                  (eprec) =   1.0D-07
 maximum number of steps          (nptopt) =   40
 initial hessian option           (inhess) =    0
 line search option               (linopt) =    1
 hessian update option            (modupd) =    1
 saddle point option              (modsad) =    0
 initial eigen-mode to follow     (moddir) =    0
 initial variable to follow       (vardir) =    0
 follow first negative mode     (firstneg) =    T
 apply conjugacy                    (opcg) =    F
 source of zmatrix                         =   autoz   


          -------------------
          Energy Minimization
          -------------------


 Names of Z-matrix variables 
    1         

 Variables with the same non-blank name are constrained to be equal


 Using diagonal initial Hessian 
 Scaling for Hessian diagonals: bonds = 1.00  angles = 0.25  torsions = 0.10

          --------
          Step   0
          --------


                         Geometry "geometry" -> "geometry"
                         ---------------------------------

 Output coordinates in angstroms (scale by  1.889725989 to convert to a.u.)

  No.       Tag          Charge          X              Y              Z
 ---- ---------------- ---------- -------------- -------------- --------------
    1 Li                   3.0000     0.00000000     0.00000000    -1.12500000
    2 F                    9.0000     0.00000000     0.00000000     0.37500000

      Atomic Mass 
      ----------- 

      Li                 7.016000
      F                 18.998400


 Effective nuclear repulsion energy (a.u.)       9.5251904820

            Nuclear Dipole moment (a.u.) 
            ----------------------------
        X                 Y               Z
 ---------------- ---------------- ----------------
     0.0000000000     0.0000000000    -0.0000000000

                         NWChem Numerical Gradients Module
                         ---------------------------------


 No. of totally-symmetric internal modes =   1

                      Basis "ao basis" -> "ao basis" (cartesian)
                      -----
  Li (Lithium)
  ------------
            Exponent  Coefficients 
       -------------- ---------------------------------------------------------
  1 S  9.00460000E+02  0.002287
  1 S  1.34433000E+02  0.017635
  1 S  3.04365000E+01  0.087343
  1 S  8.62639000E+00  0.280977
  1 S  2.48332000E+00  0.658741
  1 S  3.03179000E-01  0.118712

  2 S  4.86890000E+00  0.093329
  2 S  8.56924000E-01  0.943045
  2 S  2.43227000E-01 -0.002798

  3 P  4.86890000E+00  0.032766
  3 P  8.56924000E-01  0.159792
  3 P  2.43227000E-01  0.885667

  4 S  6.35070000E-02  1.000000

  5 P  6.35070000E-02  1.000000

  6 S  2.43683000E-02  1.000000

  7 P  2.43683000E-02  1.000000

  8 S  7.40000000E-03  1.000000

  9 P  7.40000000E-03  1.000000

 10 D  2.00000000E-01  1.000000

  F (Fluorine)
  ------------
            Exponent  Coefficients 
       -------------- ---------------------------------------------------------
  1 S  1.14271000E+04  0.001801
  1 S  1.72235000E+03  0.013742
  1 S  3.95746000E+02  0.068133
  1 S  1.15139000E+02  0.233325
  1 S  3.36026000E+01  0.589086
  1 S  4.91901000E+00  0.299505

  2 S  5.54441000E+01  0.114536
  2 S  1.26323000E+01  0.920512
  2 S  3.71756000E+00 -0.003378

  3 P  5.54441000E+01  0.035461
  3 P  1.26323000E+01  0.237451
  3 P  3.71756000E+00  0.820458

  4 S  1.16545000E+00  1.000000

  5 P  1.16545000E+00  1.000000

  6 S  3.21892000E-01  1.000000

  7 P  3.21892000E-01  1.000000

  8 S  1.07600000E-01  1.000000

  9 P  1.07600000E-01  1.000000

 10 D  1.75000000E+00  1.000000



 Summary of "ao basis" -> "ao basis" (cartesian)
 ------------------------------------------------------------------------------
       Tag                 Description            Shells   Functions and Types
 ---------------- ------------------------------  ------  ---------------------
 Li                        6-311++G**               10       23   5s4p1d
 F                         6-311++G**               10       23   5s4p1d


                                 NWChem SCF Module
                                 -----------------


                                optimization of LiF



  ao basis        = "ao basis"
  functions       =    46
  atoms           =     2
  closed shells   =     6
  open shells     =     0
  charge          =   0.00
  wavefunction    = RHF 
  input vectors   = atomic
  output vectors  = ./LiF.movecs
  use symmetry    = F
  symmetry adapt  = F


 Summary of "ao basis" -> "ao basis" (cartesian)
 ------------------------------------------------------------------------------
       Tag                 Description            Shells   Functions and Types
 ---------------- ------------------------------  ------  ---------------------
 Li                        6-311++G**               10       23   5s4p1d
 F                         6-311++G**               10       23   5s4p1d



 Forming initial guess at       0.6s


      Superposition of Atomic Density Guess
      -------------------------------------

 Sum of atomic energies:        -106.83987887

      Non-variational initial energy
      ------------------------------

 Total energy =    -106.582245
 1-e energy   =    -167.231797
 2-e energy   =      51.124361
 HOMO         =      -0.678172
 LUMO         =      -0.058967


 Starting SCF solution at       0.6s



 ----------------------------------------------
         Quadratically convergent ROHF

 Convergence threshold     :          1.000E-08
 Maximum no. of iterations :           30
 Final Fock-matrix accuracy:          1.000E-10
 ----------------------------------------------

  avail0,avail1,avail0-avail1                210021               210021                    0
  avail0,avail1,avail0-avail1                210021               210021                    0
  avail0,avail1,avail0-avail1                210021               210021                    0
  avail0,avail1,avail0-avail1                210021               210021                    0

 Integral file          = ./LiF.aoints.0
 Record size in doubles =  65536        No. of integs per rec  =  43688
 Max. records in memory =      9        Max. records in file   =  14777
 No. of bits per label  =      8        No. of bits per value  =     64


 #quartets = 2.216D+04 #integrals = 1.674D+05 #direct =  0.0% #cached =100.0%


File balance: exchanges=     0  moved=     0  time=   0.0


              iter       energy          gnorm     gmax       time
             ----- ------------------- --------- --------- --------
                 1     -106.8999855494  1.27D+00  4.71D-01      0.7
                 2     -106.9717288785  1.83D-01  6.90D-02      0.7
                 3     -106.9733213887  1.13D-02  3.89D-03      0.7
                 4     -106.9733363675  5.09D-05  1.75D-05      0.7
                 5     -106.9733363678  1.06D-09  3.11D-10      0.8


       Final RHF  results 
       ------------------ 

         Total SCF energy =   -106.973336367804
      One-electron energy =   -170.165218483024
      Two-electron energy =     53.666691633226
 Nuclear repulsion energy =      9.525190481995

        Time for solution =      0.2s


             Final eigenvalues
             -----------------

              1      
    1  -26.1171
    2   -2.4344
    3   -1.3878
    4   -0.5082
    5   -0.4842
    6   -0.4842
    7   -0.0093
    8    0.0156
    9    0.0156
   10    0.0212
   11    0.0282
   12    0.0635
   13    0.0635
   14    0.0921
   15    0.1423
   16    0.1793

                       ROHF Final Molecular Orbital Analysis
                       -------------------------------------

 Vector    2  Occ=2.000000D+00  E=-2.434443D+00
              MO Center= -1.7D-18,  5.5D-18, -1.1D+00, r^2= 1.3D-01
   Bfn.  Coefficient  Atom+Function         Bfn.  Coefficient  Atom+Function  
  ----- ------------  ---------------      ----- ------------  ---------------
     1      0.615044  1 Li s                  2      0.425093  1 Li s          

 Vector    3  Occ=2.000000D+00  E=-1.387761D+00
              MO Center=  8.2D-17,  8.3D-18,  3.3D-01, r^2= 3.8D-01
   Bfn.  Coefficient  Atom+Function         Bfn.  Coefficient  Atom+Function  
  ----- ------------  ---------------      ----- ------------  ---------------
    29      0.610081  2 F  s                 33      0.532251  2 F  s          
    25     -0.210038  2 F  s          

 Vector    4  Occ=2.000000D+00  E=-5.081962D-01
              MO Center= -8.8D-17,  4.1D-17,  3.9D-01, r^2= 5.3D-01
   Bfn.  Coefficient  Atom+Function         Bfn.  Coefficient  Atom+Function  
  ----- ------------  ---------------      ----- ------------  ---------------
    32      0.447786  2 F  pz                36      0.403424  2 F  pz         
    28      0.296058  2 F  pz                 6     -0.166783  1 Li s          

 Vector    5  Occ=2.000000D+00  E=-4.841866D-01
              MO Center= -3.6D-16, -5.3D-16,  3.4D-01, r^2= 5.9D-01
   Bfn.  Coefficient  Atom+Function         Bfn.  Coefficient  Atom+Function  
  ----- ------------  ---------------      ----- ------------  ---------------
    31      0.420201  2 F  py                35      0.390419  2 F  py         
    27      0.278169  2 F  py         

 Vector    6  Occ=2.000000D+00  E=-4.841866D-01
              MO Center= -6.9D-16, -3.3D-16,  3.4D-01, r^2= 5.9D-01
   Bfn.  Coefficient  Atom+Function         Bfn.  Coefficient  Atom+Function  
  ----- ------------  ---------------      ----- ------------  ---------------
    30      0.420201  2 F  px                34      0.390419  2 F  px         
    26      0.278169  2 F  px         

 Vector    7  Occ=0.000000D+00  E=-9.293175D-03
              MO Center= -8.1D-15, -2.9D-15, -3.3D+00, r^2= 1.6D+01
   Bfn.  Coefficient  Atom+Function         Bfn.  Coefficient  Atom+Function  
  ----- ------------  ---------------      ----- ------------  ---------------
    14      0.610347  1 Li s                 17     -0.273656  1 Li pz         
    10      0.223312  1 Li s                 13     -0.212916  1 Li pz         
     9     -0.153215  1 Li pz         

 Vector    8  Occ=0.000000D+00  E= 1.563344D-02
              MO Center= -3.1D-13,  3.3D-13, -1.1D+00, r^2= 5.3D+01
   Bfn.  Coefficient  Atom+Function         Bfn.  Coefficient  Atom+Function  
  ----- ------------  ---------------      ----- ------------  ---------------
    16     -0.820522  1 Li py                15      0.769514  1 Li px         
    12      0.180349  1 Li py                11     -0.169138  1 Li px         

 Vector    9  Occ=0.000000D+00  E= 1.563344D-02
              MO Center= -1.1D-12, -1.1D-12, -1.1D+00, r^2= 5.3D+01
   Bfn.  Coefficient  Atom+Function         Bfn.  Coefficient  Atom+Function  
  ----- ------------  ---------------      ----- ------------  ---------------
    15      0.820522  1 Li px                16      0.769514  1 Li py         
    11     -0.180349  1 Li px                12     -0.169138  1 Li py         

 Vector   10  Occ=0.000000D+00  E= 2.117558D-02
              MO Center=  1.3D-12,  6.1D-13, -3.3D+00, r^2= 4.5D+01
   Bfn.  Coefficient  Atom+Function         Bfn.  Coefficient  Atom+Function  
  ----- ------------  ---------------      ----- ------------  ---------------
    17      1.109173  1 Li pz                10      0.968865  1 Li s          
    13     -0.626788  1 Li pz                14     -0.592346  1 Li s          

 Vector   11  Occ=0.000000D+00  E= 2.818200D-02
              MO Center=  1.6D-13,  1.3D-13,  1.7D+00, r^2= 3.9D+01
   Bfn.  Coefficient  Atom+Function         Bfn.  Coefficient  Atom+Function  
  ----- ------------  ---------------      ----- ------------  ---------------
    10      1.571991  1 Li s                 14     -1.489862  1 Li s          
     6     -0.729732  1 Li s                 17     -0.526535  1 Li pz         
     9     -0.377561  1 Li pz                37      0.322443  2 F  s          

 Vector   12  Occ=0.000000D+00  E= 6.346850D-02
              MO Center= -7.0D-15,  6.9D-15, -1.3D+00, r^2= 2.5D+01
   Bfn.  Coefficient  Atom+Function         Bfn.  Coefficient  Atom+Function  
  ----- ------------  ---------------      ----- ------------  ---------------
    11      1.044369  1 Li px                12     -1.035110  1 Li py         
    15     -0.570922  1 Li px                16      0.565860  1 Li py         

 Vector   13  Occ=0.000000D+00  E= 6.346850D-02
              MO Center=  2.9D-15,  3.6D-15, -1.3D+00, r^2= 2.5D+01
   Bfn.  Coefficient  Atom+Function         Bfn.  Coefficient  Atom+Function  
  ----- ------------  ---------------      ----- ------------  ---------------
    12      1.044369  1 Li py                11      1.035110  1 Li px         
    16     -0.570922  1 Li py                15     -0.565860  1 Li px         

 Vector   14  Occ=0.000000D+00  E= 9.207954D-02
              MO Center=  1.7D-14, -9.4D-15,  2.4D-01, r^2= 2.3D+01
   Bfn.  Coefficient  Atom+Function         Bfn.  Coefficient  Atom+Function  
  ----- ------------  ---------------      ----- ------------  ---------------
    13      1.789864  1 Li pz                10      1.152524  1 Li s          
    17     -0.717535  1 Li pz                 9     -0.692964  1 Li pz         
     6     -0.662326  1 Li s                 40     -0.377482  2 F  pz         
    14     -0.363642  1 Li s          

 Vector   15  Occ=0.000000D+00  E= 1.423317D-01
              MO Center= -1.4D-14,  6.5D-15, -2.3D+00, r^2= 1.5D+01
   Bfn.  Coefficient  Atom+Function         Bfn.  Coefficient  Atom+Function  
  ----- ------------  ---------------      ----- ------------  ---------------
     6      2.799701  1 Li s                 10     -2.807072  1 Li s          
    14      0.901132  1 Li s                  9     -0.715476  1 Li pz         
    13      0.627533  1 Li pz                40      0.264799  2 F  pz         
     2     -0.243750  1 Li s                 17     -0.208032  1 Li pz         
    18     -0.152867  1 Li dxx               21     -0.152867  1 Li dyy        

 Vector   16  Occ=0.000000D+00  E= 1.792790D-01
              MO Center=  8.4D-15,  1.6D-15, -1.3D+00, r^2= 1.3D+01
   Bfn.  Coefficient  Atom+Function         Bfn.  Coefficient  Atom+Function  
  ----- ------------  ---------------      ----- ------------  ---------------
     7      1.731191  1 Li px                11     -1.482720  1 Li px         
     8      0.514310  1 Li py                15      0.463688  1 Li px         
    12     -0.440493  1 Li py                38     -0.341047  2 F  px         

 Vector   17  Occ=0.000000D+00  E= 1.792790D-01
              MO Center=  5.7D-16, -5.0D-15, -1.3D+00, r^2= 1.3D+01
   Bfn.  Coefficient  Atom+Function         Bfn.  Coefficient  Atom+Function  
  ----- ------------  ---------------      ----- ------------  ---------------
     8      1.731191  1 Li py                12     -1.482720  1 Li py         
     7     -0.514310  1 Li px                16      0.463688  1 Li py         
    11      0.440493  1 Li px                39     -0.341047  2 F  py         

 Vector   18  Occ=0.000000D+00  E= 2.188045D-01
              MO Center= -5.1D-15, -1.4D-15, -5.6D-01, r^2= 1.3D+01
   Bfn.  Coefficient  Atom+Function         Bfn.  Coefficient  Atom+Function  
  ----- ------------  ---------------      ----- ------------  ---------------
     6      4.498170  1 Li s                 37     -3.452274  2 F  s          
     9      3.249708  1 Li pz                10     -1.718136  1 Li s          
    13     -1.568406  1 Li pz                40      0.995865  2 F  pz         
    17      0.398973  1 Li pz                14      0.383312  1 Li s          
    33      0.225313  2 F  s          

 Vector   19  Occ=0.000000D+00  E= 4.109654D-01
              MO Center= -1.2D-14,  2.6D-15,  4.3D-01, r^2= 4.8D+00
   Bfn.  Coefficient  Atom+Function         Bfn.  Coefficient  Atom+Function  
  ----- ------------  ---------------      ----- ------------  ---------------
    39      1.439710  2 F  py                38      0.914669  2 F  px         
     8     -0.552871  1 Li py                35     -0.549528  2 F  py         
     7     -0.351247  1 Li px                34     -0.349123  2 F  px         

 Vector   20  Occ=0.000000D+00  E= 4.109654D-01
              MO Center= -1.2D-14,  6.0D-15,  4.3D-01, r^2= 4.8D+00
   Bfn.  Coefficient  Atom+Function         Bfn.  Coefficient  Atom+Function  
  ----- ------------  ---------------      ----- ------------  ---------------
    38      1.439710  2 F  px                39     -0.914669  2 F  py         
     7     -0.552871  1 Li px                34     -0.549528  2 F  px         
     8      0.351247  1 Li py                35      0.349123  2 F  py         

 Vector   21  Occ=0.000000D+00  E= 4.173481D-01
              MO Center=  1.7D-14,  1.5D-15,  1.3D+00, r^2= 4.5D+00
   Bfn.  Coefficient  Atom+Function         Bfn.  Coefficient  Atom+Function  
  ----- ------------  ---------------      ----- ------------  ---------------
    40      1.414141  2 F  pz                37      1.205855  2 F  s          
    10     -0.932142  1 Li s                  6      0.745058  1 Li s          
    33     -0.612040  2 F  s                 36     -0.581035  2 F  pz         
    13     -0.535550  1 Li pz                14      0.174607  1 Li s          
    23     -0.159951  1 Li dzz        

 Vector   22  Occ=0.000000D+00  E= 5.818831D-01
              MO Center=  5.6D-15, -9.1D-15, -1.1D+00, r^2= 2.5D+00
   Bfn.  Coefficient  Atom+Function         Bfn.  Coefficient  Atom+Function  
  ----- ------------  ---------------      ----- ------------  ---------------
    18      0.865179  1 Li dxx               21     -0.865179  1 Li dyy        


 center of mass
 --------------
 x =   0.00000000 y =   0.00000000 z =  -0.05583228

 moments of inertia (a.u.)
 ------------------
          41.169252676051           0.000000000000           0.000000000000
           0.000000000000          41.169252676051           0.000000000000
           0.000000000000           0.000000000000           0.000000000000

  Mulliken analysis of the total density
  --------------------------------------

    Atom       Charge   Shell Charges
 -----------   ------   -------------------------------------------------------
    1 Li   3     2.33   1.20  0.79  0.16  0.08  0.06 -0.01 -0.00  0.00  0.00  0.05
    2 F    9     9.67   1.08  0.92  1.14  1.07  2.41  0.98  2.01 -0.09  0.18 -0.02

       Multipole analysis of the density wrt the origin
       ------------------------------------------------

     L   x y z        total         open         nuclear
     -   - - -        -----         ----         -------
     0   0 0 0     -0.000000      0.000000     12.000000

     1   1 0 0      0.000000      0.000000      0.000000
     1   0 1 0      0.000000      0.000000      0.000000
     1   0 0 1     -2.481199      0.000000     -0.000000

     2   2 0 0     -5.215969      0.000000      0.000000
     2   1 1 0      0.000000      0.000000      0.000000
     2   1 0 1     -0.000000      0.000000      0.000000
     2   0 2 0     -5.215969      0.000000      0.000000
     2   0 1 1     -0.000000      0.000000      0.000000
     2   0 0 2     -0.946167      0.000000     18.078513


 Parallel integral file used       6 records with       0 large values



                   Four-Index Transformation
                   -------------------------
          Number of basis functions:             46
          Number of shells:                      20
          Number of occupied orbitals:            6
          Number of occ. correlated orbitals:     6
          Block length:                          16
          Superscript MO index range:      1 -    6
          Subscript MO index range:        1 -   46
          MO coefficients read from:  ./LiF.movecs             
          Number of operator matrices in core:   42
          Half-transformed integrals produced

    0 shell      1 out of     20 in             0.79 secs
    0 shell      2 out of     20 in             0.79 secs
    0 shell      3 out of     20 in             0.79 secs
    0 shell      4 out of     20 in             0.80 secs
    0 shell      5 out of     20 in             0.80 secs
    0 shell      6 out of     20 in             0.80 secs
    0 shell      7 out of     20 in             0.81 secs
    0 shell      8 out of     20 in             0.81 secs
    0 shell      9 out of     20 in             0.81 secs
    0 shell     10 out of     20 in             0.82 secs
    0 shell     11 out of     20 in             0.82 secs
    0 shell     12 out of     20 in             0.83 secs
    0 shell     13 out of     20 in             0.83 secs
    0 shell     14 out of     20 in             0.83 secs
    0 shell     15 out of     20 in             0.84 secs
    0 shell     16 out of     20 in             0.84 secs
    0 shell     17 out of     20 in             0.85 secs
    0 shell     18 out of     20 in             0.85 secs
    0 shell     19 out of     20 in             0.85 secs
    0 shell     20 out of     20 in             0.85 secs
     Pass:    1     Index range:    1  -    6     Time:      0.07
 ------------------------------------------
 MP2 Energy (coupled cluster initial guess)
 ------------------------------------------
 Reference energy:           -106.973336367804052
 MP2 Corr. energy:             -0.269299847123386
 Total MP2 energy:           -107.242636214927444


 ****************************************************************************
              the segmented parallel ccsd program:    3 nodes
 ****************************************************************************




 level of theory    ccsd
 number of core         0
 number of occupied     6
 number of virtual     40
 number of deleted      0
 total functions       46
 number of shells      20
 basis label          566



   ***** ccsd parameters *****
   iprt   =     0
   convi  =  0.100E-07
   maxit  =    50
   mxvec  =     5
 memory             52424460
  Using  1 OpenMP thread(s) in CCSD
  avail0,avail1,avail0-avail1                210021               210021                    0
  avail0,avail1,avail0-avail1                210021               210021                    0
  avail0,avail1,avail0-avail1                210021               210021                    0
  avail0,avail1,avail0-avail1                210021               210021                    0
  IO offset    20.000000000000000     
  IO error message >End of File
  file_read_ga: failing reading from ./LiF.t2
  Failed reading restart vector from ./LiF.t2
  Using MP2 initial guess vector 


-------------------------------------------------------------------------
 iter     correlation     delta       rms       T2     Non-T2      Main
             energy      energy      error      ampl     ampl      Block
                                                time     time      time
-------------------------------------------------------------------------
   1     -0.2613000827 -2.613D-01  1.060D-01     0.12     0.00     0.11
   2     -0.2683830427 -7.083D-03  1.077D-01     0.03     0.00     0.02
   3     -0.2677355888  6.475D-04  1.110D-02     0.03     0.00     0.02
   4     -0.2683158250 -5.802D-04  2.154D-03     0.03     0.00     0.02
   5     -0.2685307212 -2.149D-04  3.926D-03     0.03     0.00     0.02
   6     -0.2685271103  3.611D-06  3.500D-04     0.03     0.00     0.02
   7     -0.2685236697  3.441D-06  8.737D-04     0.03     0.00     0.02
   8     -0.2685241956 -5.259D-07  1.999D-05     0.03     0.00     0.02
   9     -0.2685232952  9.004D-07  1.582D-05     0.03     0.00     0.02
  10     -0.2685229990  2.962D-07  7.616D-06     0.03     0.00     0.02
  11     -0.2685231453 -1.463D-07  2.609D-06     0.03     0.00     0.02
  12     -0.2685231762 -3.092D-08  3.950D-06     0.03     0.00     0.02
  13     -0.2685232067 -3.047D-08  1.854D-06     0.03     0.00     0.02
  14     -0.2685232170 -1.024D-08  1.438D-06     0.03     0.00     0.02
  15     -0.2685232166  3.319D-10  6.271D-08     0.03     0.00     0.02
  16     -0.2685232177 -1.095D-09  3.376D-08     0.03     0.00     0.02
  17     -0.2685232183 -6.292D-10  2.043D-08     0.03     0.00     0.02
  18     -0.2685232181  2.526D-10  8.572D-09     0.03     0.00     0.02
                  *************converged*************
-------------------------------------------------------------------------

 -----------
 CCSD Energy
 -----------
 Reference energy:            -106.973336367804052
 CCSD corr. energy:             -0.268523218093776
 Total CCSD energy:           -107.241859585897828


 --------------------------------
 Spin Component Scaled (SCS) CCSD
 --------------------------------
 Same spin contribution:                 -0.059024047439355
 Same spin scaling factor:                1.130000000000000
 Opposite spin contribution:             -0.209499170654422
 Opposite spin scaling fact.:             1.270000000000000
 SCS-CCSD correlation energy:            -0.332761120337586
 Total SCS-CCSD energy:                -107.306097488141631

 routine      calls  cpu(0)   cpu-min  cpu-ave  cpu-max   i/o 
 aoccsd          1     0.00     0.00     0.00     0.00    0.00
 iterdrv         1     0.19     0.19     0.19     0.19    0.00
 pampt          18     0.02     0.02     0.02     0.02    0.00
 t2pm           18     0.02     0.02     0.02     0.02    0.00
 sxy            18     0.01     0.01     0.01     0.02    0.00
 ints        14700     0.09     0.09     0.09     0.09    0.00
 f_write       140     0.00     0.00     0.00     0.00    0.00
 t2eri        1260     0.19     0.19     0.19     0.19    0.00
 idx2         1260     0.09     0.09     0.09     0.09    0.00
 idx34          18     0.00     0.00     0.00     0.01    0.00
 ht2pm          18     0.03     0.03     0.03     0.03    0.00
 itm            18     0.12     0.12     0.12     0.12    0.00
 pdiis          18     0.00     0.00     0.00     0.00    0.00
 r_read       1190     0.01     0.01     0.01     0.01    0.00
 Total                 0.77     0.77     0.77     0.77    0.00
 Reference energy        -107.24185959


 Saving state for ccsd with suffix numg
        ./LiF.movecs
        ./LiF.t2

 Finite difference step  1.00000D-02
 Use five point formula F

                                 NWChem SCF Module
                                 -----------------


                                optimization of LiF



  ao basis        = "ao basis"
  functions       =    46
  atoms           =     2
  closed shells   =     6
  open shells     =     0
  charge          =   0.00
  wavefunction    = RHF 
  input vectors   = ./LiF.movecs
  output vectors  = ./LiF.movecs
  use symmetry    = F
  symmetry adapt  = F


 Summary of "ao basis" -> "ao basis" (cartesian)
 ------------------------------------------------------------------------------
       Tag                 Description            Shells   Functions and Types
 ---------------- ------------------------------  ------  ---------------------
 Li                        6-311++G**               10       23   5s4p1d
 F                         6-311++G**               10       23   5s4p1d



 Forming initial guess at       1.8s


 Loading old vectors from job with title :

optimization of LiF


 Starting SCF solution at       1.8s



 ----------------------------------------------
         Quadratically convergent ROHF

 Convergence threshold     :          1.000E-08
 Maximum no. of iterations :           30
 Final Fock-matrix accuracy:          1.000E-10
 ----------------------------------------------

  avail0,avail1,avail0-avail1                210021               210021                    0
  avail0,avail1,avail0-avail1                210021               210021                    0
  avail0,avail1,avail0-avail1                210021               210021                    0
  avail0,avail1,avail0-avail1                210021               210021                    0

 Integral file          = ./LiF.aoints.0
 Record size in doubles =  65536        No. of integs per rec  =  43688
 Max. records in memory =      9        Max. records in file   =  14777
 No. of bits per label  =      8        No. of bits per value  =     64


 #quartets = 2.216D+04 #integrals = 1.674D+05 #direct =  0.0% #cached =100.0%


File balance: exchanges=     0  moved=     0  time=   0.0


              iter       energy          gnorm     gmax       time
             ----- ------------------- --------- --------- --------
                 1     -106.9737189182  7.83D-03  2.76D-03      1.9
                 2     -106.9737231796  3.10D-05  1.00D-05      1.9
                 3     -106.9737231797  2.48D-10  6.37D-11      2.0


       Final RHF  results 
       ------------------ 

         Total SCF energy =   -106.973723179666
      One-electron energy =   -170.077424681175
      Two-electron energy =     53.625797523588
 Nuclear repulsion energy =      9.477903977921

        Time for solution =      0.2s


             Final eigenvalues
             -----------------

              1      
    1  -26.1168
    2   -2.4354
    3   -1.3869
    4   -0.5073
    5   -0.4833
    6   -0.4833
    7   -0.0095
    8    0.0156
    9    0.0156
   10    0.0211
   11    0.0282
   12    0.0633
   13    0.0633
   14    0.0921
   15    0.1422
   16    0.1789

                       ROHF Final Molecular Orbital Analysis
                       -------------------------------------

 Vector    2  Occ=2.000000D+00  E=-2.435379D+00
              MO Center= -1.6D-18,  5.4D-18, -1.1D+00, r^2= 1.3D-01
   Bfn.  Coefficient  Atom+Function         Bfn.  Coefficient  Atom+Function  
  ----- ------------  ---------------      ----- ------------  ---------------
     1      0.615157  1 Li s                  2      0.425194  1 Li s          

 Vector    3  Occ=2.000000D+00  E=-1.386863D+00
              MO Center=  8.1D-17,  7.9D-18,  3.4D-01, r^2= 3.8D-01
   Bfn.  Coefficient  Atom+Function         Bfn.  Coefficient  Atom+Function  
  ----- ------------  ---------------      ----- ------------  ---------------
    29      0.610183  2 F  s                 33      0.532031  2 F  s          
    25     -0.210044  2 F  s          

 Vector    4  Occ=2.000000D+00  E=-5.072869D-01
              MO Center= -8.8D-17,  4.0D-17,  3.9D-01, r^2= 5.3D-01
   Bfn.  Coefficient  Atom+Function         Bfn.  Coefficient  Atom+Function  
  ----- ------------  ---------------      ----- ------------  ---------------
    32      0.447356  2 F  pz                36      0.403730  2 F  pz         
    28      0.295863  2 F  pz                 6     -0.166451  1 Li s          

 Vector    5  Occ=2.000000D+00  E=-4.833172D-01
              MO Center= -8.8D-16, -1.9D-16,  3.4D-01, r^2= 5.9D-01
   Bfn.  Coefficient  Atom+Function         Bfn.  Coefficient  Atom+Function  
  ----- ------------  ---------------      ----- ------------  ---------------
    30      0.440182  2 F  px                34      0.409092  2 F  px         
    26      0.291450  2 F  px         

 Vector    6  Occ=2.000000D+00  E=-4.833172D-01
              MO Center= -1.7D-16, -6.6D-16,  3.4D-01, r^2= 5.9D-01
   Bfn.  Coefficient  Atom+Function         Bfn.  Coefficient  Atom+Function  
  ----- ------------  ---------------      ----- ------------  ---------------
    31      0.440182  2 F  py                35      0.409092  2 F  py         
    27      0.291450  2 F  py         

 Vector    7  Occ=0.000000D+00  E=-9.468752D-03
              MO Center=  3.3D-15,  2.5D-15, -3.3D+00, r^2= 1.6D+01
   Bfn.  Coefficient  Atom+Function         Bfn.  Coefficient  Atom+Function  
  ----- ------------  ---------------      ----- ------------  ---------------
    14      0.606202  1 Li s                 17     -0.271758  1 Li pz         
    10      0.227556  1 Li s                 13     -0.213900  1 Li pz         
     9     -0.154540  1 Li pz         

 Vector    8  Occ=0.000000D+00  E= 1.561692D-02
              MO Center=  9.0D-14, -1.2D-13, -1.1D+00, r^2= 5.3D+01
   Bfn.  Coefficient  Atom+Function         Bfn.  Coefficient  Atom+Function  
  ----- ------------  ---------------      ----- ------------  ---------------
    16      0.891282  1 Li py                15     -0.685385  1 Li px         
    12     -0.195246  1 Li py                11      0.150142  1 Li px         

 Vector    9  Occ=0.000000D+00  E= 1.561692D-02
              MO Center=  8.5D-13,  6.5D-13, -1.1D+00, r^2= 5.3D+01
   Bfn.  Coefficient  Atom+Function         Bfn.  Coefficient  Atom+Function  
  ----- ------------  ---------------      ----- ------------  ---------------
    15      0.891282  1 Li px                16      0.685385  1 Li py         
    11     -0.195246  1 Li px                12     -0.150142  1 Li py         

 Vector   10  Occ=0.000000D+00  E= 2.108939D-02
              MO Center= -1.4D-12, -7.6D-13, -3.4D+00, r^2= 4.4D+01
   Bfn.  Coefficient  Atom+Function         Bfn.  Coefficient  Atom+Function  
  ----- ------------  ---------------      ----- ------------  ---------------
    17      1.103276  1 Li pz                10      0.984860  1 Li s          
    13     -0.623907  1 Li pz                14     -0.611413  1 Li s          

 Vector   11  Occ=0.000000D+00  E= 2.819184D-02
              MO Center=  4.7D-13,  2.4D-13,  1.8D+00, r^2= 3.9D+01
   Bfn.  Coefficient  Atom+Function         Bfn.  Coefficient  Atom+Function  
  ----- ------------  ---------------      ----- ------------  ---------------
    10      1.556389  1 Li s                 14     -1.482780  1 Li s          
     6     -0.723247  1 Li s                 17     -0.539943  1 Li pz         
     9     -0.377949  1 Li pz                37      0.320844  2 F  s          
    13      0.158006  1 Li pz         

 Vector   12  Occ=0.000000D+00  E= 6.332068D-02
              MO Center= -5.1D-15, -6.5D-15, -1.3D+00, r^2= 2.5D+01
   Bfn.  Coefficient  Atom+Function         Bfn.  Coefficient  Atom+Function  
  ----- ------------  ---------------      ----- ------------  ---------------
    12      1.140124  1 Li py                11      0.925782  1 Li px         
    16     -0.624219  1 Li py                15     -0.506867  1 Li px         

 Vector   13  Occ=0.000000D+00  E= 6.332068D-02
              MO Center=  5.3D-15, -4.2D-15, -1.3D+00, r^2= 2.5D+01
   Bfn.  Coefficient  Atom+Function         Bfn.  Coefficient  Atom+Function  
  ----- ------------  ---------------      ----- ------------  ---------------
    11      1.140124  1 Li px                12     -0.925782  1 Li py         
    15     -0.624219  1 Li px                16      0.506867  1 Li py         

 Vector   14  Occ=0.000000D+00  E= 9.208392D-02
              MO Center= -4.1D-15, -2.1D-15,  2.2D-01, r^2= 2.3D+01
   Bfn.  Coefficient  Atom+Function         Bfn.  Coefficient  Atom+Function  
  ----- ------------  ---------------      ----- ------------  ---------------
    13      1.791148  1 Li pz                10      1.143502  1 Li s          
    17     -0.717796  1 Li pz                 9     -0.692339  1 Li pz         
     6     -0.650090  1 Li s                 40     -0.375833  2 F  pz         
    14     -0.360285  1 Li s          

 Vector   15  Occ=0.000000D+00  E= 1.421692D-01
              MO Center= -3.7D-15, -4.4D-15, -2.3D+00, r^2= 1.5D+01
   Bfn.  Coefficient  Atom+Function         Bfn.  Coefficient  Atom+Function  
  ----- ------------  ---------------      ----- ------------  ---------------
    10     -2.803805  1 Li s                  6      2.779197  1 Li s          
    14      0.901554  1 Li s                  9     -0.724794  1 Li pz         
    13      0.628364  1 Li pz                40      0.259546  2 F  pz         
     2     -0.244241  1 Li s                 17     -0.207683  1 Li pz         
    18     -0.152496  1 Li dxx               21     -0.152496  1 Li dyy        

 Vector   16  Occ=0.000000D+00  E= 1.789245D-01
              MO Center= -9.5D-15, -8.4D-15, -1.3D+00, r^2= 1.3D+01
   Bfn.  Coefficient  Atom+Function         Bfn.  Coefficient  Atom+Function  
  ----- ------------  ---------------      ----- ------------  ---------------
     7      1.499328  1 Li px                11     -1.288039  1 Li px         
     8      0.998712  1 Li py                12     -0.857971  1 Li py         
    15      0.403142  1 Li px                38     -0.292169  2 F  px         
    16      0.268535  1 Li py                39     -0.194616  2 F  py         

 Vector   17  Occ=0.000000D+00  E= 1.789245D-01
              MO Center=  6.3D-16, -4.3D-16, -1.3D+00, r^2= 1.3D+01
   Bfn.  Coefficient  Atom+Function         Bfn.  Coefficient  Atom+Function  
  ----- ------------  ---------------      ----- ------------  ---------------
     8      1.499328  1 Li py                12     -1.288039  1 Li py         
     7     -0.998712  1 Li px                11      0.857971  1 Li px         
    16      0.403142  1 Li py                39     -0.292169  2 F  py         
    15     -0.268535  1 Li px                38      0.194616  2 F  px         

 Vector   18  Occ=0.000000D+00  E= 2.187467D-01
              MO Center= -4.0D-15,  1.1D-15, -5.6D-01, r^2= 1.3D+01
   Bfn.  Coefficient  Atom+Function         Bfn.  Coefficient  Atom+Function  
  ----- ------------  ---------------      ----- ------------  ---------------
     6      4.488913  1 Li s                 37     -3.437463  2 F  s          
     9      3.247284  1 Li pz                10     -1.720795  1 Li s          
    13     -1.569664  1 Li pz                40      1.004646  2 F  pz         
    17      0.399275  1 Li pz                14      0.384584  1 Li s          
    33      0.225225  2 F  s          

 Vector   19  Occ=0.000000D+00  E= 4.109420D-01
              MO Center= -2.2D-14, -3.6D-15,  4.4D-01, r^2= 4.8D+00
   Bfn.  Coefficient  Atom+Function         Bfn.  Coefficient  Atom+Function  
  ----- ------------  ---------------      ----- ------------  ---------------
    38      1.691020  2 F  px                 7     -0.647316  1 Li px         
    34     -0.647422  2 F  px                39      0.187519  2 F  py         

 Vector   20  Occ=0.000000D+00  E= 4.109420D-01
              MO Center= -1.5D-15,  1.2D-14,  4.4D-01, r^2= 4.8D+00
   Bfn.  Coefficient  Atom+Function         Bfn.  Coefficient  Atom+Function  
  ----- ------------  ---------------      ----- ------------  ---------------
    39      1.691020  2 F  py                 8     -0.647316  1 Li py         
    35     -0.647422  2 F  py                38     -0.187519  2 F  px         

 Vector   21  Occ=0.000000D+00  E= 4.175004D-01
              MO Center=  2.8D-14, -9.9D-15,  1.3D+00, r^2= 4.5D+00
   Bfn.  Coefficient  Atom+Function         Bfn.  Coefficient  Atom+Function  
  ----- ------------  ---------------      ----- ------------  ---------------
    40      1.404556  2 F  pz                37      1.219899  2 F  s          
    10     -0.928510  1 Li s                  6      0.735919  1 Li s          
    33     -0.620751  2 F  s                 36     -0.577972  2 F  pz         
    13     -0.535328  1 Li pz                14      0.173373  1 Li s          
    23     -0.158569  1 Li dzz        

 Vector   22  Occ=0.000000D+00  E= 5.814796D-01
              MO Center= -6.5D-15,  1.3D-15, -1.1D+00, r^2= 2.5D+00
   Bfn.  Coefficient  Atom+Function         Bfn.  Coefficient  Atom+Function  
  ----- ------------  ---------------      ----- ------------  ---------------
    18      0.865655  1 Li dxx               21     -0.865655  1 Li dyy        


 center of mass
 --------------
 x =   0.00000000 y =   0.00000000 z =  -0.05257531

 moments of inertia (a.u.)
 ------------------
          41.581075022917           0.000000000000           0.000000000000
           0.000000000000          41.581075022917           0.000000000000
           0.000000000000           0.000000000000           0.000000000000

  Mulliken analysis of the total density
  --------------------------------------

    Atom       Charge   Shell Charges
 -----------   ------   -------------------------------------------------------
    1 Li   3     2.33   1.20  0.79  0.16  0.08  0.06 -0.01 -0.00  0.00  0.00  0.05
    2 F    9     9.67   1.08  0.92  1.14  1.07  2.41  0.98  2.01 -0.09  0.18 -0.02

       Multipole analysis of the density wrt the origin
       ------------------------------------------------

     L   x y z        total         open         nuclear
     -   - - -        -----         ----         -------
     0   0 0 0      0.000000      0.000000     12.000000

     1   1 0 0      0.000000      0.000000      0.000000
     1   0 1 0      0.000000      0.000000      0.000000
     1   0 0 1     -2.494592      0.000000      0.042426

     2   2 0 0     -5.218695      0.000000      0.000000
     2   1 1 0      0.000000      0.000000      0.000000
     2   1 0 1     -0.000000      0.000000      0.000000
     2   0 2 0     -5.218695      0.000000      0.000000
     2   0 1 1     -0.000000      0.000000      0.000000
     2   0 0 2     -0.924989      0.000000     18.259505


 Parallel integral file used       6 records with       0 large values



                   Four-Index Transformation
                   -------------------------
          Number of basis functions:             46
          Number of shells:                      20
          Number of occupied orbitals:            6
          Number of occ. correlated orbitals:     6
          Block length:                          16
          Superscript MO index range:      1 -    6
          Subscript MO index range:        1 -   46
          MO coefficients read from:  ./LiF.movecs             
          Number of operator matrices in core:   42
          Half-transformed integrals produced

    0 shell      1 out of     20 in             1.99 secs
    0 shell      2 out of     20 in             1.99 secs
    0 shell      3 out of     20 in             1.99 secs
    0 shell      4 out of     20 in             1.99 secs
    0 shell      5 out of     20 in             2.00 secs
    0 shell      6 out of     20 in             2.00 secs
    0 shell      7 out of     20 in             2.01 secs
    0 shell      8 out of     20 in             2.01 secs
    0 shell      9 out of     20 in             2.01 secs
    0 shell     10 out of     20 in             2.02 secs
    0 shell     11 out of     20 in             2.02 secs
    0 shell     12 out of     20 in             2.02 secs
    0 shell     13 out of     20 in             2.03 secs
    0 shell     14 out of     20 in             2.03 secs
    0 shell     15 out of     20 in             2.04 secs
    0 shell     16 out of     20 in             2.04 secs
    0 shell     17 out of     20 in             2.04 secs
    0 shell     18 out of     20 in             2.05 secs
    0 shell     19 out of     20 in             2.05 secs
    0 shell     20 out of     20 in             2.05 secs
     Pass:    1     Index range:    1  -    6     Time:      0.07
 ------------------------------------------
 MP2 Energy (coupled cluster initial guess)
 ------------------------------------------
 Reference energy:           -106.973723179665939
 MP2 Corr. energy:             -0.269383068824027
 Total MP2 energy:           -107.243106248489966


 ****************************************************************************
              the segmented parallel ccsd program:    3 nodes
 ****************************************************************************




 level of theory    ccsd
 number of core         0
 number of occupied     6
 number of virtual     40
 number of deleted      0
 total functions       46
 number of shells      20
 basis label          566



   ***** ccsd parameters *****
   iprt   =     0
   convi  =  0.100E-07
   maxit  =    50
   mxvec  =     5
 memory             52424460
  Using  1 OpenMP thread(s) in CCSD
  avail0,avail1,avail0-avail1                210021               210021                    0
  avail0,avail1,avail0-avail1                210021               210021                    0
  avail0,avail1,avail0-avail1                210021               210021                    0
  avail0,avail1,avail0-avail1                210021               210021                    0
  Restarting from old vector in ./LiF.t2


-------------------------------------------------------------------------
 iter     correlation     delta       rms       T2     Non-T2      Main
             energy      energy      error      ampl     ampl      Block
                                                time     time      time
-------------------------------------------------------------------------
   1     -0.2721288351 -2.721D-01  7.160D-02     0.20     0.00     0.19
   2     -0.2653881467  6.741D-03  3.611D-02     0.03     0.00     0.02
   3     -0.2681909996 -2.803D-03  7.891D-03     0.03     0.00     0.02
   4     -0.2682679266 -7.693D-05  7.429D-03     0.03     0.00     0.02
   5     -0.2684662963 -1.984D-04  2.563D-03     0.03     0.00     0.02
   6     -0.2685694192 -1.031D-04  1.281D-03     0.03     0.00     0.02
   7     -0.2685785854 -9.166D-06  9.701D-04     0.03     0.00     0.02
   8     -0.2685755440  3.041D-06  1.689D-04     0.03     0.00     0.02
   9     -0.2685785200 -2.976D-06  7.556D-05     0.03     0.00     0.02
  10     -0.2685772206  1.299D-06  1.057D-05     0.03     0.00     0.02
  11     -0.2685774381 -2.175D-07  8.067D-06     0.03     0.00     0.02
  12     -0.2685774411 -3.054D-09  3.884D-06     0.03     0.00     0.02
  13     -0.2685774394  1.751D-09  9.687D-07     0.03     0.00     0.02
  14     -0.2685774534 -1.398D-08  2.769D-06     0.03     0.00     0.02
  15     -0.2685774555 -2.106D-09  3.981D-07     0.03     0.00     0.02
  16     -0.2685774543  1.214D-09  2.880D-07     0.03     0.00     0.02
  17     -0.2685774547 -4.484D-10  6.882D-08     0.03     0.00     0.02
  18     -0.2685774544  2.848D-10  2.631D-08     0.03     0.00     0.02
  19     -0.2685774542  2.456D-10  2.005D-09     0.03     0.00     0.02
                  *************converged*************
-------------------------------------------------------------------------

 -----------
 CCSD Energy
 -----------
 Reference energy:            -106.973723179665939
 CCSD corr. energy:             -0.268577454177499
 Total CCSD energy:           -107.242300633843442


 --------------------------------
 Spin Component Scaled (SCS) CCSD
 --------------------------------
 Same spin contribution:                 -0.059024096428986
 Same spin scaling factor:                1.130000000000000
 Opposite spin contribution:             -0.209553357748513
 Opposite spin scaling fact.:             1.270000000000000
 SCS-CCSD correlation energy:            -0.332829993305366
 Total SCS-CCSD energy:                -107.306553172971306

 routine      calls  cpu(0)   cpu-min  cpu-ave  cpu-max   i/o 
 aoccsd          1     0.00     0.00     0.00     0.00    0.00
 iterdrv         1     0.16     0.16     0.16     0.16    0.00
 pampt          19     0.02     0.02     0.02     0.02    0.00
 t2pm           19     0.02     0.02     0.02     0.02    0.00
 sxy            19     0.01     0.01     0.01     0.02    0.00
 ints        14700     0.09     0.09     0.09     0.09    0.00
 f_write       140     0.08     0.08     0.08     0.08    0.00
 t2eri        1330     0.20     0.20     0.20     0.20    0.00
 idx2         1330     0.10     0.09     0.10     0.10    0.00
 idx34          19     0.01     0.01     0.01     0.01    0.00
 ht2pm          19     0.03     0.03     0.03     0.03    0.00
 itm            19     0.12     0.12     0.12     0.12    0.00
 pdiis          19     0.00     0.00     0.00     0.00    0.00
 r_read       1260     0.01     0.01     0.01     0.01    0.00
 Total                 0.86     0.86     0.86     0.86    0.00
 step     1 energy        -107.24230063
                                 NWChem SCF Module
                                 -----------------


                                optimization of LiF



  ao basis        = "ao basis"
  functions       =    46
  atoms           =     2
  closed shells   =     6
  open shells     =     0
  charge          =   0.00
  wavefunction    = RHF 
  input vectors   = ./LiF.movecs
  output vectors  = ./LiF.movecs
  use symmetry    = F
  symmetry adapt  = F


 Summary of "ao basis" -> "ao basis" (cartesian)
 ------------------------------------------------------------------------------
       Tag                 Description            Shells   Functions and Types
 ---------------- ------------------------------  ------  ---------------------
 Li                        6-311++G**               10       23   5s4p1d
 F                         6-311++G**               10       23   5s4p1d



 Forming initial guess at       2.9s


 Loading old vectors from job with title :

optimization of LiF


 Starting SCF solution at       2.9s



 ----------------------------------------------
         Quadratically convergent ROHF

 Convergence threshold     :          1.000E-08
 Maximum no. of iterations :           30
 Final Fock-matrix accuracy:          1.000E-10
 ----------------------------------------------

  avail0,avail1,avail0-avail1                210021               210021                    0
  avail0,avail1,avail0-avail1                210021               210021                    0
  avail0,avail1,avail0-avail1                210021               210021                    0
  avail0,avail1,avail0-avail1                210021               210021                    0

 Integral file          = ./LiF.aoints.0
 Record size in doubles =  65536        No. of integs per rec  =  43688
 Max. records in memory =      9        Max. records in file   =  14777
 No. of bits per label  =      8        No. of bits per value  =     64


 #quartets = 2.216D+04 #integrals = 1.674D+05 #direct =  0.0% #cached =100.0%


File balance: exchanges=     0  moved=     0  time=   0.0


              iter       energy          gnorm     gmax       time
             ----- ------------------- --------- --------- --------
                 1     -106.9728964531  7.96D-03  2.82D-03      3.0
                 2     -106.9729008354  3.04D-05  1.11D-05      3.0
                 3     -106.9729008355  4.17D-10  1.75D-10      3.1


       Final RHF  results 
       ------------------ 

         Total SCF energy =   -106.972900835458
      One-electron energy =   -170.253837512603
      Two-electron energy =     53.707985488095
 Nuclear repulsion energy =      9.572951189051

        Time for solution =      0.1s


             Final eigenvalues
             -----------------

              1      
    1  -26.1175
    2   -2.4335
    3   -1.3887
    4   -0.5091
    5   -0.4851
    6   -0.4851
    7   -0.0091
    8    0.0156
    9    0.0156
   10    0.0213
   11    0.0282
   12    0.0636
   13    0.0636
   14    0.0921
   15    0.1425
   16    0.1796

                       ROHF Final Molecular Orbital Analysis
                       -------------------------------------

 Vector    2  Occ=2.000000D+00  E=-2.433517D+00
              MO Center= -1.9D-18,  5.5D-18, -1.1D+00, r^2= 1.3D-01
   Bfn.  Coefficient  Atom+Function         Bfn.  Coefficient  Atom+Function  
  ----- ------------  ---------------      ----- ------------  ---------------
     1      0.614927  1 Li s                  2      0.424990  1 Li s          

 Vector    3  Occ=2.000000D+00  E=-1.388658D+00
              MO Center=  8.3D-17,  9.1D-18,  3.3D-01, r^2= 3.8D-01
   Bfn.  Coefficient  Atom+Function         Bfn.  Coefficient  Atom+Function  
  ----- ------------  ---------------      ----- ------------  ---------------
    29      0.609980  2 F  s                 33      0.532466  2 F  s          
    25     -0.210031  2 F  s          

 Vector    4  Occ=2.000000D+00  E=-5.090995D-01
              MO Center= -8.9D-17,  4.0D-17,  3.9D-01, r^2= 5.3D-01
   Bfn.  Coefficient  Atom+Function         Bfn.  Coefficient  Atom+Function  
  ----- ------------  ---------------      ----- ------------  ---------------
    32      0.448225  2 F  pz                36      0.403103  2 F  pz         
    28      0.296256  2 F  pz                 6     -0.167110  1 Li s          

 Vector    5  Occ=2.000000D+00  E=-4.850624D-01
              MO Center= -2.0D-16, -6.5D-16,  3.4D-01, r^2= 5.9D-01
   Bfn.  Coefficient  Atom+Function         Bfn.  Coefficient  Atom+Function  
  ----- ------------  ---------------      ----- ------------  ---------------
    31      0.440466  2 F  py                35      0.409133  2 F  py         
    27      0.291529  2 F  py         

 Vector    6  Occ=2.000000D+00  E=-4.850624D-01
              MO Center= -8.6D-16, -2.2D-16,  3.4D-01, r^2= 5.9D-01
   Bfn.  Coefficient  Atom+Function         Bfn.  Coefficient  Atom+Function  
  ----- ------------  ---------------      ----- ------------  ---------------
    30      0.440466  2 F  px                34      0.409133  2 F  px         
    26      0.291529  2 F  px         

 Vector    7  Occ=0.000000D+00  E=-9.118309D-03
              MO Center=  3.6D-15,  2.8D-15, -3.3D+00, r^2= 1.6D+01
   Bfn.  Coefficient  Atom+Function         Bfn.  Coefficient  Atom+Function  
  ----- ------------  ---------------      ----- ------------  ---------------
    14      0.614503  1 Li s                 17     -0.275555  1 Li pz         
    10      0.219031  1 Li s                 13     -0.211917  1 Li pz         
     9     -0.151887  1 Li pz         

 Vector    8  Occ=0.000000D+00  E= 1.564980D-02
              MO Center= -3.1D-14,  5.7D-14, -1.1D+00, r^2= 5.3D+01
   Bfn.  Coefficient  Atom+Function         Bfn.  Coefficient  Atom+Function  
  ----- ------------  ---------------      ----- ------------  ---------------
    16      0.989182  1 Li py                15     -0.536831  1 Li px         
    12     -0.218143  1 Li py         

 Vector    9  Occ=0.000000D+00  E= 1.564980D-02
              MO Center= -5.5D-13, -3.0D-13, -1.1D+00, r^2= 5.3D+01
   Bfn.  Coefficient  Atom+Function         Bfn.  Coefficient  Atom+Function  
  ----- ------------  ---------------      ----- ------------  ---------------
    15      0.989182  1 Li px                16      0.536831  1 Li py         
    11     -0.218143  1 Li px         

 Vector   10  Occ=0.000000D+00  E= 2.126003D-02
              MO Center=  1.2D-14, -9.0D-13, -3.2D+00, r^2= 4.5D+01
   Bfn.  Coefficient  Atom+Function         Bfn.  Coefficient  Atom+Function  
  ----- ------------  ---------------      ----- ------------  ---------------
    17      1.115082  1 Li pz                10      0.952096  1 Li s          
    13     -0.629578  1 Li pz                14     -0.572660  1 Li s          

 Vector   11  Occ=0.000000D+00  E= 2.817465D-02
              MO Center=  5.6D-13,  1.1D-12,  1.6D+00, r^2= 3.9D+01
   Bfn.  Coefficient  Atom+Function         Bfn.  Coefficient  Atom+Function  
  ----- ------------  ---------------      ----- ------------  ---------------
    10      1.587754  1 Li s                 14     -1.496888  1 Li s          
     6     -0.736184  1 Li s                 17     -0.512661  1 Li pz         
     9     -0.377067  1 Li pz                37      0.323942  2 F  s          

 Vector   12  Occ=0.000000D+00  E= 6.361576D-02
              MO Center= -4.9D-15,  7.6D-15, -1.3D+00, r^2= 2.5D+01
   Bfn.  Coefficient  Atom+Function         Bfn.  Coefficient  Atom+Function  
  ----- ------------  ---------------      ----- ------------  ---------------
    12      1.225505  1 Li py                11     -0.815785  1 Li px         
    16     -0.668929  1 Li py                15      0.445288  1 Li px         
    39     -0.154438  2 F  py         

 Vector   13  Occ=0.000000D+00  E= 6.361576D-02
              MO Center=  6.1D-15,  4.1D-15, -1.3D+00, r^2= 2.5D+01
   Bfn.  Coefficient  Atom+Function         Bfn.  Coefficient  Atom+Function  
  ----- ------------  ---------------      ----- ------------  ---------------
    11      1.225505  1 Li px                12      0.815785  1 Li py         
    15     -0.668929  1 Li px                16     -0.445288  1 Li py         
    38     -0.154438  2 F  px         

 Vector   14  Occ=0.000000D+00  E= 9.207372D-02
              MO Center= -4.0D-15, -9.4D-15,  2.6D-01, r^2= 2.3D+01
   Bfn.  Coefficient  Atom+Function         Bfn.  Coefficient  Atom+Function  
  ----- ------------  ---------------      ----- ------------  ---------------
    13      1.788558  1 Li pz                10      1.161452  1 Li s          
    17     -0.717274  1 Li pz                 9     -0.693549  1 Li pz         
     6     -0.674470  1 Li s                 40     -0.379095  2 F  pz         
    14     -0.366971  1 Li s          

 Vector   15  Occ=0.000000D+00  E= 1.424918D-01
              MO Center=  2.1D-14,  6.1D-15, -2.3D+00, r^2= 1.5D+01
   Bfn.  Coefficient  Atom+Function         Bfn.  Coefficient  Atom+Function  
  ----- ------------  ---------------      ----- ------------  ---------------
     6      2.820244  1 Li s                 10     -2.810354  1 Li s          
    14      0.900712  1 Li s                  9     -0.706277  1 Li pz         
    13      0.626731  1 Li pz                40      0.269920  2 F  pz         
     2     -0.243242  1 Li s                 17     -0.208378  1 Li pz         
    18     -0.153242  1 Li dxx               21     -0.153242  1 Li dyy        

 Vector   16  Occ=0.000000D+00  E= 1.796340D-01
              MO Center= -6.4D-16,  3.5D-15, -1.3D+00, r^2= 1.3D+01
   Bfn.  Coefficient  Atom+Function         Bfn.  Coefficient  Atom+Function  
  ----- ------------  ---------------      ----- ------------  ---------------
     7      1.308231  1 Li px                 8     -1.251577  1 Li py         
    11     -1.117055  1 Li px                12      1.068680  1 Li py         
    15      0.349041  1 Li px                16     -0.333926  1 Li py         
    38     -0.260526  2 F  px                39      0.249243  2 F  py         

 Vector   17  Occ=0.000000D+00  E= 1.796340D-01
              MO Center= -1.0D-14, -1.1D-14, -1.3D+00, r^2= 1.3D+01
   Bfn.  Coefficient  Atom+Function         Bfn.  Coefficient  Atom+Function  
  ----- ------------  ---------------      ----- ------------  ---------------
     8      1.308231  1 Li py                 7      1.251577  1 Li px         
    12     -1.117055  1 Li py                11     -1.068680  1 Li px         
    16      0.349041  1 Li py                15      0.333926  1 Li px         
    39     -0.260526  2 F  py                38     -0.249243  2 F  px         

 Vector   18  Occ=0.000000D+00  E= 2.188676D-01
              MO Center=  1.3D-15, -1.5D-17, -5.5D-01, r^2= 1.3D+01
   Bfn.  Coefficient  Atom+Function         Bfn.  Coefficient  Atom+Function  
  ----- ------------  ---------------      ----- ------------  ---------------
     6      4.507037  1 Li s                 37     -3.466620  2 F  s          
     9      3.251887  1 Li pz                10     -1.715411  1 Li s          
    13     -1.567112  1 Li pz                40      0.986873  2 F  pz         
    17      0.398670  1 Li pz                14      0.382034  1 Li s          
    33      0.225429  2 F  s          

 Vector   19  Occ=0.000000D+00  E= 4.109901D-01
              MO Center=  1.3D-14, -1.5D-15,  4.3D-01, r^2= 4.8D+00
   Bfn.  Coefficient  Atom+Function         Bfn.  Coefficient  Atom+Function  
  ----- ------------  ---------------      ----- ------------  ---------------
    38      1.702439  2 F  px                 7     -0.655850  1 Li px         
    34     -0.647813  2 F  px                39     -0.160905  2 F  py         

 Vector   20  Occ=0.000000D+00  E= 4.109901D-01
              MO Center= -3.9D-16, -5.5D-15,  4.3D-01, r^2= 4.8D+00
   Bfn.  Coefficient  Atom+Function         Bfn.  Coefficient  Atom+Function  
  ----- ------------  ---------------      ----- ------------  ---------------
    39      1.702439  2 F  py                 8     -0.655850  1 Li py         
    35     -0.647813  2 F  py                38      0.160905  2 F  px         

 Vector   21  Occ=0.000000D+00  E= 4.171926D-01
              MO Center= -1.2D-14,  7.3D-15,  1.3D+00, r^2= 4.5D+00
   Bfn.  Coefficient  Atom+Function         Bfn.  Coefficient  Atom+Function  
  ----- ------------  ---------------      ----- ------------  ---------------
    40      1.423809  2 F  pz                37      1.191562  2 F  s          
    10     -0.935781  1 Li s                  6      0.754302  1 Li s          
    33     -0.603200  2 F  s                 36     -0.584104  2 F  pz         
    13     -0.535731  1 Li pz                14      0.175841  1 Li s          
    23     -0.161305  1 Li dzz        

 Vector   22  Occ=0.000000D+00  E= 5.822840D-01
              MO Center= -1.4D-15, -3.5D-16, -1.1D+00, r^2= 2.5D+00
   Bfn.  Coefficient  Atom+Function         Bfn.  Coefficient  Atom+Function  
  ----- ------------  ---------------      ----- ------------  ---------------
    18      0.865366  1 Li dxx               21     -0.865366  1 Li dyy        


 center of mass
 --------------
 x =   0.00000000 y =   0.00000000 z =  -0.05908926

 moments of inertia (a.u.)
 ------------------
          40.759479852131           0.000000000000           0.000000000000
           0.000000000000          40.759479852131           0.000000000000
           0.000000000000           0.000000000000           0.000000000000

  Mulliken analysis of the total density
  --------------------------------------

    Atom       Charge   Shell Charges
 -----------   ------   -------------------------------------------------------
    1 Li   3     2.34   1.20  0.79  0.16  0.08  0.06 -0.01 -0.00  0.00  0.00  0.05
    2 F    9     9.66   1.08  0.92  1.14  1.07  2.41  0.98  2.01 -0.09  0.18 -0.02

       Multipole analysis of the density wrt the origin
       ------------------------------------------------

     L   x y z        total         open         nuclear
     -   - - -        -----         ----         -------
     0   0 0 0      0.000000      0.000000     12.000000

     1   1 0 0      0.000000      0.000000      0.000000
     1   0 1 0      0.000000      0.000000      0.000000
     1   0 0 1     -2.467812      0.000000     -0.042426

     2   2 0 0     -5.213216      0.000000      0.000000
     2   1 1 0     -0.000000      0.000000      0.000000
     2   1 0 1     -0.000000      0.000000      0.000000
     2   0 2 0     -5.213216      0.000000      0.000000
     2   0 1 1     -0.000000      0.000000      0.000000
     2   0 0 2     -0.967363      0.000000     17.898721


 Parallel integral file used       6 records with       0 large values



                   Four-Index Transformation
                   -------------------------
          Number of basis functions:             46
          Number of shells:                      20
          Number of occupied orbitals:            6
          Number of occ. correlated orbitals:     6
          Block length:                          16
          Superscript MO index range:      1 -    6
          Subscript MO index range:        1 -   46
          MO coefficients read from:  ./LiF.movecs             
          Number of operator matrices in core:   42
          Half-transformed integrals produced

    0 shell      1 out of     20 in             3.09 secs
    0 shell      2 out of     20 in             3.09 secs
    0 shell      3 out of     20 in             3.10 secs
    0 shell      4 out of     20 in             3.10 secs
    0 shell      5 out of     20 in             3.10 secs
    0 shell      6 out of     20 in             3.11 secs
    0 shell      7 out of     20 in             3.11 secs
    0 shell      8 out of     20 in             3.11 secs
    0 shell      9 out of     20 in             3.12 secs
    0 shell     10 out of     20 in             3.12 secs
    0 shell     11 out of     20 in             3.13 secs
    0 shell     12 out of     20 in             3.13 secs
    0 shell     13 out of     20 in             3.13 secs
    0 shell     14 out of     20 in             3.14 secs
    0 shell     15 out of     20 in             3.14 secs
    0 shell     16 out of     20 in             3.14 secs
    0 shell     17 out of     20 in             3.15 secs
    0 shell     18 out of     20 in             3.15 secs
    0 shell     19 out of     20 in             3.15 secs
    0 shell     20 out of     20 in             3.16 secs
     Pass:    1     Index range:    1  -    6     Time:      0.07
 ------------------------------------------
 MP2 Energy (coupled cluster initial guess)
 ------------------------------------------
 Reference energy:           -106.972900835457594
 MP2 Corr. energy:             -0.269216681621720
 Total MP2 energy:           -107.242117517079308


 ****************************************************************************
              the segmented parallel ccsd program:    3 nodes
 ****************************************************************************




 level of theory    ccsd
 number of core         0
 number of occupied     6
 number of virtual     40
 number of deleted      0
 total functions       46
 number of shells      20
 basis label          566



   ***** ccsd parameters *****
   iprt   =     0
   convi  =  0.100E-07
   maxit  =    50
   mxvec  =     5
 memory             52424460
  Using  1 OpenMP thread(s) in CCSD
  avail0,avail1,avail0-avail1                210021               210021                    0
  avail0,avail1,avail0-avail1                210021               210021                    0
  avail0,avail1,avail0-avail1                210021               210021                    0
  avail0,avail1,avail0-avail1                210021               210021                    0
  Restarting from old vector in ./LiF.t2


-------------------------------------------------------------------------
 iter     correlation     delta       rms       T2     Non-T2      Main
             energy      energy      error      ampl     ampl      Block
                                                time     time      time
-------------------------------------------------------------------------
   1     -0.2768480263 -2.768D-01  8.396D-02     0.20     0.00     0.19
   2     -0.2637374084  1.311D-02  1.592D-01     0.03     0.00     0.02
   3     -0.2675696602 -3.832D-03  1.453D-02     0.03     0.00     0.02
   4     -0.2680952284 -5.256D-04  9.644D-03     0.03     0.00     0.02
   5     -0.2683599606 -2.647D-04  1.688D-03     0.03     0.00     0.02
   6     -0.2684606275 -1.007D-04  1.142D-03     0.03     0.00     0.02
   7     -0.2684787369 -1.811D-05  3.926D-04     0.03     0.00     0.02
   8     -0.2684665168  1.222D-05  4.740D-04     0.03     0.00     0.02
   9     -0.2684696981 -3.181D-06  6.220D-05     0.03     0.00     0.02
  10     -0.2684690811  6.170D-07  1.425D-05     0.03     0.00     0.02
  11     -0.2684689694  1.117D-07  2.038D-06     0.03     0.00     0.02
  12     -0.2684690019 -3.254D-08  3.202D-06     0.03     0.00     0.02
  13     -0.2684690243 -2.238D-08  1.334D-06     0.03     0.00     0.02
  14     -0.2684690247 -4.010D-10  4.584D-07     0.03     0.00     0.02
  15     -0.2684690283 -3.563D-09  2.102D-07     0.03     0.00     0.02
  16     -0.2684690267  1.596D-09  4.713D-08     0.03     0.00     0.02
  17     -0.2684690258  8.320D-10  3.210D-08     0.03     0.00     0.02
  18     -0.2684690257  1.539D-10  1.786D-08     0.03     0.00     0.02
  19     -0.2684690256  9.100D-11  8.612D-09     0.03     0.00     0.02
                  *************converged*************
-------------------------------------------------------------------------

 -----------
 CCSD Energy
 -----------
 Reference energy:            -106.972900835457594
 CCSD corr. energy:             -0.268469025597542
 Total CCSD energy:           -107.241369861055134


 --------------------------------
 Spin Component Scaled (SCS) CCSD
 --------------------------------
 Same spin contribution:                 -0.059024270297427
 Same spin scaling factor:                1.130000000000000
 Opposite spin contribution:             -0.209444755300115
 Opposite spin scaling fact.:             1.270000000000000
 SCS-CCSD correlation energy:            -0.332692264667239
 Total SCS-CCSD energy:                -107.305593100124838

 routine      calls  cpu(0)   cpu-min  cpu-ave  cpu-max   i/o 
 aoccsd          1     0.00     0.00     0.00     0.00    0.00
 iterdrv         1     0.17     0.17     0.17     0.17    0.00
 pampt          19     0.02     0.02     0.02     0.02    0.00
 t2pm           19     0.02     0.02     0.02     0.02    0.00
 sxy            19     0.01     0.01     0.02     0.02    0.00
 ints        14700     0.09     0.09     0.09     0.09    0.00
 f_write       140     0.08     0.08     0.08     0.08    0.00
 t2eri        1330     0.20     0.20     0.20     0.20    0.00
 idx2         1330     0.10     0.09     0.09     0.10    0.00
 idx34          19     0.01     0.01     0.01     0.01    0.00
 ht2pm          19     0.03     0.03     0.03     0.03    0.00
 itm            19     0.12     0.12     0.12     0.12    0.00
 pdiis          19     0.00     0.00     0.00     0.00    0.00
 r_read       1260     0.01     0.01     0.01     0.01    0.00
 Total                 0.86     0.86     0.86     0.86    0.00
 step    -1 energy        -107.24136986
            gradient        -0.046539


                         CCSD ENERGY GRADIENTS

    atom               coordinates                        gradient
                 x          y          z           x          y          z
   1 Li      0.000000   0.000000  -2.125942    0.000000   0.000000   0.032908
   2 F       0.000000   0.000000   0.708647    0.000000   0.000000  -0.032908



 Deleting state for ccsd with suffix numg
        ./LiF.movecs

  no constraints, skipping    0.0000000000000000     

@ Step       Energy      Delta E   Gmax     Grms     Xrms     Xmax   Walltime
@ ---- ---------------- -------- -------- -------- -------- -------- --------
@    0    -107.24185959  0.0D+00  0.03291  0.03291  0.00000  0.00000      4.1
                                                                    



                                Z-matrix (autoz)
                                -------- 

 Units are Angstrom for bonds and degrees for angles

      Type          Name      I     J     K     L     M      Value     Gradient
      ----------- --------  ----- ----- ----- ----- ----- ---------- ----------
    1 Stretch                  1     2                       1.50000   -0.03291

  no constraints, skipping    0.0000000000000000     
  no constraints, skipping    0.0000000000000000     
  no constraints, skipping    0.0000000000000000     
                                 NWChem SCF Module
                                 -----------------


                                optimization of LiF



  ao basis        = "ao basis"
  functions       =    46
  atoms           =     2
  closed shells   =     6
  open shells     =     0
  charge          =   0.00
  wavefunction    = RHF 
  input vectors   = ./LiF.movecs
  output vectors  = ./LiF.movecs
  use symmetry    = F
  symmetry adapt  = F


 Summary of "ao basis" -> "ao basis" (cartesian)
 ------------------------------------------------------------------------------
       Tag                 Description            Shells   Functions and Types
 ---------------- ------------------------------  ------  ---------------------
 Li                        6-311++G**               10       23   5s4p1d
 F                         6-311++G**               10       23   5s4p1d



 Forming initial guess at       4.2s


 Loading old vectors from job with title :

optimization of LiF


 Starting SCF solution at       4.2s



 ----------------------------------------------
         Quadratically convergent ROHF

 Convergence threshold     :          1.000E-08
 Maximum no. of iterations :           30
 Final Fock-matrix accuracy:          1.000E-10
 ----------------------------------------------

  avail0,avail1,avail0-avail1                210021               210021                    0
  avail0,avail1,avail0-avail1                210021               210021                    0
  avail0,avail1,avail0-avail1                210021               210021                    0
  avail0,avail1,avail0-avail1                210021               210021                    0

 Integral file          = ./LiF.aoints.0
 Record size in doubles =  65536        No. of integs per rec  =  43688
 Max. records in memory =      9        Max. records in file   =  14777
 No. of bits per label  =      8        No. of bits per value  =     64


 #quartets = 2.216D+04 #integrals = 1.674D+05 #direct =  0.0% #cached =100.0%


File balance: exchanges=     0  moved=     0  time=   0.0


              iter       energy          gnorm     gmax       time
[...]
 Opposite spin scaling fact.:             1.270000000000000
 SCS-CCSD correlation energy:            -0.333634881886804
 Total SCS-CCSD energy:                -107.308809569022955

 routine      calls  cpu(0)   cpu-min  cpu-ave  cpu-max   i/o 
 aoccsd          1     0.00     0.00     0.00     0.00    0.00
 iterdrv         1     0.18     0.18     0.18     0.18    0.00
 pampt          20     0.02     0.02     0.02     0.02    0.00
 t2pm           20     0.02     0.02     0.02     0.02    0.00
 sxy            20     0.02     0.01     0.02     0.02    0.00
 ints        14700     0.09     0.09     0.09     0.09    0.00
 f_write       140     0.09     0.09     0.09     0.09    0.00
 t2eri        1400     0.21     0.21     0.21     0.21    0.00
 idx2         1400     0.10     0.10     0.10     0.10    0.00
 idx34          20     0.01     0.01     0.01     0.01    0.00
 ht2pm          20     0.03     0.03     0.03     0.03    0.00
 itm            20     0.13     0.13     0.13     0.13    0.00
 pdiis          20     0.00     0.00     0.00     0.00    0.00
 r_read       1330     0.01     0.01     0.01     0.01    0.00
 Total                 0.92     0.92     0.92     0.92    0.00
 step     1 energy        -107.24438793
                                 NWChem SCF Module
                                 -----------------


                                optimization of LiF



  ao basis        = "ao basis"
  functions       =    46
  atoms           =     2
  closed shells   =     6
  open shells     =     0
  charge          =   0.00
  wavefunction    = RHF 
  input vectors   = ./LiF.movecs
  output vectors  = ./LiF.movecs
  use symmetry    = F
  symmetry adapt  = F


 Forming initial guess at      92.8s


 Starting SCF solution at      92.8s

  avail0,avail1,avail0-avail1                210007               210007                    0
  avail0,avail1,avail0-avail1                210007               210007                    0
  avail0,avail1,avail0-avail1                210007               210007                    0
  avail0,avail1,avail0-avail1                210007               210007                    0


       Final RHF  results 
       ------------------ 

         Total SCF energy =   -106.975278314835
      One-electron energy =   -169.264492885388
      Two-electron energy =     53.247904205647
 Nuclear repulsion energy =      9.041310364906

        Time for solution =      0.1s




                   Four-Index Transformation
                   -------------------------
          Number of basis functions:             46
          Number of shells:                      20
          Number of occupied orbitals:            6
          Number of occ. correlated orbitals:     6
          Block length:                          16
          Superscript MO index range:      1 -    6
          Subscript MO index range:        1 -   46
          MO coefficients read from:  ./LiF.movecs             
          Number of operator matrices in core:   42
          Half-transformed integrals produced

    0 shell      1 out of     20 in            92.98 secs
    0 shell      2 out of     20 in            92.98 secs
    0 shell      3 out of     20 in            92.98 secs
    0 shell      4 out of     20 in            92.98 secs
    0 shell      5 out of     20 in            92.99 secs
    0 shell      6 out of     20 in            92.99 secs
    0 shell      7 out of     20 in            92.99 secs
    0 shell      8 out of     20 in            93.00 secs
    0 shell      9 out of     20 in            93.00 secs
    0 shell     10 out of     20 in            93.00 secs
    0 shell     11 out of     20 in            93.01 secs
    0 shell     12 out of     20 in            93.01 secs
    0 shell     13 out of     20 in            93.02 secs
    0 shell     14 out of     20 in            93.02 secs
    0 shell     15 out of     20 in            93.02 secs
    0 shell     16 out of     20 in            93.03 secs
    0 shell     17 out of     20 in            93.03 secs
    0 shell     18 out of     20 in            93.03 secs
    0 shell     19 out of     20 in            93.04 secs
    0 shell     20 out of     20 in            93.04 secs
     Pass:    1     Index range:    1  -    6     Time:      0.07


 ****************************************************************************
              the segmented parallel ccsd program:    3 nodes
 ****************************************************************************




 level of theory    ccsd
 number of core         0
 number of occupied     6
 number of virtual     40
 number of deleted      0
 total functions       46
 number of shells      20
 basis label          566



   ***** ccsd parameters *****
   iprt   =     0
   convi  =  0.100E-07
   maxit  =    50
   mxvec  =     5
 memory             52424340
  Using  1 OpenMP thread(s) in CCSD
  avail0,avail1,avail0-avail1                210007               210007                    0
  avail0,avail1,avail0-avail1                210007               210007                    0
  avail0,avail1,avail0-avail1                210007               210007                    0
  avail0,avail1,avail0-avail1                210007               210007                    0
  Restarting from old vector in ./LiF.t2


-------------------------------------------------------------------------
 iter     correlation     delta       rms       T2     Non-T2      Main
             energy      energy      error      ampl     ampl      Block
                                                time     time      time
-------------------------------------------------------------------------
   1     -0.2767814187 -2.768D-01  1.122D-01     0.21     0.00     0.20
   2     -0.2631730885  1.361D-02  1.060D-01     0.03     0.00     0.02
   3     -0.2682931366 -5.120D-03  2.157D-02     0.03     0.00     0.02
   4     -0.2686255876 -3.325D-04  2.901D-03     0.03     0.00     0.02
   5     -0.2689482303 -3.226D-04  5.072D-03     0.03     0.00     0.02
   6     -0.2691118080 -1.636D-04  1.489D-03     0.03     0.00     0.02
   7     -0.2691292425 -1.743D-05  1.071D-04     0.03     0.00     0.02
   8     -0.2691044085  2.483D-05  1.939D-04     0.03     0.00     0.02
   9     -0.2691076454 -3.237D-06  1.521D-04     0.03     0.00     0.02
  10     -0.2691055703  2.075D-06  5.986D-05     0.03     0.00     0.02
  11     -0.2691051416  4.287D-07  1.746D-05     0.03     0.00     0.02
  12     -0.2691051552 -1.361D-08  3.757D-06     0.03     0.00     0.02
  13     -0.2691051686 -1.348D-08  2.277D-06     0.03     0.00     0.02
  14     -0.2691051774 -8.740D-09  6.849D-07     0.03     0.00     0.02
  15     -0.2691051832 -5.810D-09  1.864D-07     0.03     0.00     0.02
  16     -0.2691051824  8.028D-10  4.913D-07     0.03     0.00     0.02
  17     -0.2691051808  1.611D-09  2.396D-07     0.03     0.00     0.02
  18     -0.2691051802  6.197D-10  3.669D-08     0.03     0.00     0.02
  19     -0.2691051800  1.214D-10  1.730D-08     0.03     0.00     0.02
  20     -0.2691051798  2.755D-10  1.429D-08     0.03     0.00     0.02
  21     -0.2691051798  3.605D-12  2.012D-09     0.03     0.00     0.02
                  *************converged*************
-------------------------------------------------------------------------

 -----------
 CCSD Energy
 -----------
 Reference energy:            -106.975278314834597
 CCSD corr. energy:             -0.269105179763155
 Total CCSD energy:           -107.244383494597756


 --------------------------------
 Spin Component Scaled (SCS) CCSD
 --------------------------------
 Same spin contribution:                 -0.059037261867284
 Same spin scaling factor:                1.130000000000000
 Opposite spin contribution:             -0.210067917895870
 Opposite spin scaling fact.:             1.270000000000000
 SCS-CCSD correlation energy:            -0.333498361637786
 Total SCS-CCSD energy:                -107.308776676472377

 routine      calls  cpu(0)   cpu-min  cpu-ave  cpu-max   i/o 
 aoccsd          1     0.00     0.00     0.00     0.00    0.00
 iterdrv         1     0.19     0.19     0.19     0.19    0.00
 pampt          21     0.02     0.02     0.02     0.02    0.00
 t2pm           21     0.02     0.02     0.02     0.02    0.00
 sxy            21     0.01     0.01     0.02     0.02    0.00
 ints        14700     0.09     0.09     0.09     0.09    0.00
 f_write       140     0.08     0.08     0.08     0.08    0.00
 t2eri        1470     0.22     0.22     0.22     0.22    0.00
 idx2         1470     0.11     0.10     0.11     0.11    0.00
 idx34          21     0.01     0.01     0.01     0.01    0.00
 ht2pm          21     0.03     0.03     0.03     0.03    0.00
 itm            21     0.14     0.14     0.14     0.14    0.00
 pdiis          21     0.00     0.00     0.00     0.00    0.00
 r_read       1400     0.01     0.01     0.01     0.01    0.00
 Total                 0.94     0.94     0.94     0.94    0.00
 step    -1 energy        -107.24438349
            gradient        -0.000222


                         CCSD ENERGY GRADIENTS

    atom               coordinates                        gradient
                 x          y          z           x          y          z
   1 Li      0.000000   0.000000  -2.209365    0.000000   0.000000   0.000157
   2 F       0.000000   0.000000   0.791070    0.000000   0.000000  -0.000157


  
  finite difference hessian delta =    1.0000000000000000E-003

              1        2        3        4        5        6      
    1    0.0000  -0.0000  -0.0000  -0.0000   0.0000   0.0000
    2   -0.0000   0.0000  -0.0000   0.0000  -0.0000   0.0000
    3   -0.0000  -0.0000   0.1568   0.0000  -0.0000  -0.1568
    4   -0.0000   0.0000   0.0000   0.0000   0.0000  -0.0000
    5    0.0000  -0.0000  -0.0000   0.0000   0.0000   0.0000
    6    0.0000   0.0000  -0.1568  -0.0000   0.0000   0.1568
  
  triangle hessian written to ./LiF.hess

 Deleting state for ccsd with suffix hess
        ./LiF.movecs



  Vibrational analysis via the FX method 

  See chapter 2 in "Molecular Vibrations" by Wilson, Decius and Cross

  Vib: Default input used 

  Nuclear Hessian passed symmetry test 



 ---------------------------- Atom information ----------------------------
     atom    #        X              Y              Z            mass
 --------------------------------------------------------------------------
    Li       1  0.0000000D+00  0.0000000D+00 -2.2093647D+00  7.0160000D+00
    F        2  0.0000000D+00  0.0000000D+00  7.9207022D-01  1.8998400D+01
 --------------------------------------------------------------------------




          ----------------------------------------------------
          MASS-WEIGHTED NUCLEAR HESSIAN (Hartree/Bohr/Bohr/Kamu)
          ----------------------------------------------------


               1            2            3            4            5            6
   ----- ----- ----- ----- -----
    1    6.08964D-04
    2   -2.86354D-05  6.23041D-04
    3   -6.13724D-05 -1.64723D-04  2.23440D+01
    4   -1.00852D-06  0.00000D+00  5.78663D-04  6.12872D-07
    5    0.00000D+00 -9.47716D-07 -8.64491D-05  0.00000D+00  5.75923D-07
    6    0.00000D+00  0.00000D+00 -1.35791D+01 -1.75825D-04  2.62674D-05  8.25197D+00



          -------------------------------------------------
          NORMAL MODE EIGENVECTORS IN CARTESIAN COORDINATES
          -------------------------------------------------
                 (Frequencies expressed in cm-1)

                    1           2           3           4           5           6
 
 Frequency         -3.30        0.12        1.21        3.96        4.14      899.16
 
           1    -0.01173     0.00012    -0.00907     0.31250    -0.21132     0.00000
           2    -0.02953     0.00057    -0.01976     0.20939     0.31213     0.00000
           3    -0.18332    -0.00001    -0.06679    -0.01610    -0.01077    -0.32263
           4     0.07818     0.03409    -0.21290    -0.00510    -0.00272    -0.00000
           5    -0.01172     0.22688     0.03201     0.00051     0.00016     0.00000
           6    -0.18331    -0.00001    -0.06679    -0.01610    -0.01077     0.11915


        Vibrational analysis via the FX method 
  --- with translations and rotations projected out ---
  --- via the Eckart algorithm                      ---
 Dependent rotation vector no.                    3
  found in ECKART; assuming linear geometry
 Projected Nuclear Hessian trans-rot subspace norm:7.3117D-43
                         (should be close to zero!) 

          --------------------------------------------------------
          MASS-WEIGHTED PROJECTED HESSIAN (Hartree/Bohr/Bohr/Kamu)
          --------------------------------------------------------


               1            2            3            4            5            6
   ----- ----- ----- ----- -----
    1    0.00000D+00
    2    0.00000D+00  0.00000D+00
    3    7.54555D-20  3.01822D-20  2.23449D+01
    4    0.00000D+00  0.00000D+00  1.83416D-19  0.00000D+00
    5    0.00000D+00  1.43294D-22  9.17080D-21  2.13002D-37  0.00000D+00
    6   -4.29427D-20 -8.63079D-21 -1.35789D+01 -6.68767D-20 -5.57305D-21  8.25185D+00

 center of mass
 --------------
 x =   0.00000000 y =   0.00000000 z =  -0.01740713

 moments of inertia (a.u.)
 ------------------
          46.158390712441           0.000000000000           0.000000000000
           0.000000000000          46.158390712441           0.000000000000
           0.000000000000           0.000000000000           0.000000000000

 Rotational Constants
 --------------------
 A=   0.000000 cm-1  (  0.000000 K)
 B=   1.304209 cm-1  (  1.876423 K)
 C=   1.304209 cm-1  (  1.876423 K)


 Temperature                      =   298.15K
 frequency scaling parameter      =   1.0000


 Linear Molecule                   

 Zero-Point correction to Energy  =    1.285 kcal/mol  (  0.002047 au)
 Thermal correction to Energy     =    2.799 kcal/mol  (  0.004461 au)
 Thermal correction to Enthalpy   =    3.392 kcal/mol  (  0.005405 au)

 Total Entropy                    =   47.882 cal/mol-K
   - Translational                =   35.688 cal/mol-K (mol. weight =  26.0144)
   - Rotational                   =   12.053 cal/mol-K (symmetry #  =        1)
   - Vibrational                  =    0.140 cal/mol-K

 Cv (constant volume heat capacity) =    5.467 cal/mol-K
   - Translational                  =    2.979 cal/mol-K
   - Rotational                     =    1.986 cal/mol-K
   - Vibrational                    =    0.501 cal/mol-K



          -------------------------------------------------
          NORMAL MODE EIGENVECTORS IN CARTESIAN COORDINATES
          -------------------------------------------------
             (Projected Frequencies expressed in cm-1)

                    1           2           3           4           5           6
 
 P.Frequency       -0.00        0.00        0.00        0.00        0.00      899.17
 
           1     0.00000     0.37753     0.00000     0.00000     0.00000     0.00000
           2     0.00000     0.00000     0.37753     0.00000     0.00000     0.00000
           3    -0.19606     0.00000     0.00000     0.00000     0.00000    -0.32263
           4     0.00000     0.00000     0.00000     0.22943     0.00000     0.00000
           5     0.00000     0.00000     0.00000     0.00000     0.22943     0.00000
           6    -0.19606     0.00000     0.00000     0.00000     0.00000     0.11915
 vib:animation  T

 Task  times  cpu:       71.7s     wall:       71.7s


                                NWChem Input Module
                                -------------------


 Summary of allocated global arrays
-----------------------------------
  No active global arrays


MA_summarize_allocated_blocks: starting scan ...
MA_summarize_allocated_blocks: scan completed: 0 heap blocks, 0 stack blocks
MA usage statistics:

	allocation statistics:
					      heap	     stack
					      ----	     -----
	current number of blocks	         0	         0
	maximum number of blocks	        17	        37
	current total bytes		         0	         0
	maximum total bytes		   4733736	 377772648
	maximum total K-bytes		      4734	    377773
	maximum total M-bytes		         5	       378


                                     CITATION
                                     --------
                Please cite the following reference when publishing
                           results obtained with NWChem:

          E. Apra, E. J. Bylaska, W. A. de Jong, N. Govind, K. Kowalski,
       T. P. Straatsma, M. Valiev, H. J. J. van Dam, Y. Alexeev, J. Anchell,
       V. Anisimov, F. W. Aquino, R. Atta-Fynn, J. Autschbach, N. P. Bauman,
     J. C. Becca, D. E. Bernholdt, K. Bhaskaran-Nair, S. Bogatko, P. Borowski,
         J. Boschen, J. Brabec, A. Bruner, E. Cauet, Y. Chen, G. N. Chuev,
      C. J. Cramer, J. Daily, M. J. O. Deegan, T. H. Dunning Jr., M. Dupuis,
   K. G. Dyall, G. I. Fann, S. A. Fischer, A. Fonari, H. Fruchtl, L. Gagliardi,
      J. Garza, N. Gawande, S. Ghosh, K. Glaesemann, A. W. Gotz, J. Hammond,
       V. Helms, E. D. Hermes, K. Hirao, S. Hirata, M. Jacquelin, L. Jensen,
   B. G. Johnson, H. Jonsson, R. A. Kendall, M. Klemm, R. Kobayashi, V. Konkov,
      S. Krishnamoorthy, M. Krishnan, Z. Lin, R. D. Lins, R. J. Littlefield,
      A. J. Logsdail, K. Lopata, W. Ma, A. V. Marenich, J. Martin del Campo,
   D. Mejia-Rodriguez, J. E. Moore, J. M. Mullin, T. Nakajima, D. R. Nascimento,
    J. A. Nichols, P. J. Nichols, J. Nieplocha, A. Otero-de-la-Roza, B. Palmer,
    A. Panyala, T. Pirojsirikul, B. Peng, R. Peverati, J. Pittner, L. Pollack,
   R. M. Richard, P. Sadayappan, G. C. Schatz, W. A. Shelton, D. W. Silverstein,
   D. M. A. Smith, T. A. Soares, D. Song, M. Swart, H. L. Taylor, G. S. Thomas,
            V. Tipparaju, D. G. Truhlar, K. Tsemekhman, T. Van Voorhis,
      A. Vazquez-Mayagoitia, P. Verma, O. Villa, A. Vishnu, K. D. Vogiatzis,
        D. Wang, J. H. Weare, M. J. Williamson, T. L. Windus, K. Wolinski,
        A. T. Wong, Q. Wu, C. Yang, Q. Yu, M. Zacharias, Z. Zhang, Y. Zhao,
                                and R. J. Harrison
                        "NWChem: Past, present, and future
                         J. Chem. Phys. 152, 184102 (2020)
                               doi:10.1063/5.0004997

                                      AUTHORS
                                      -------
  E. Apra, E. J. Bylaska, N. Govind, K. Kowalski, M. Valiev, D. Mejia-Rodriguez,
       A. Kunitsa, N. P. Bauman, A. Panyala, W. A. de Jong, T. P. Straatsma,
   H. J. J. van Dam, D. Wang, T. L. Windus, J. Hammond, J. Autschbach, A. Woods,
    K. Bhaskaran-Nair, J. Brabec, K. Lopata, S. A. Fischer, S. Krishnamoorthy,
     M. Jacquelin, W. Ma, M. Klemm, O. Villa, Y. Chen, V. Anisimov, F. Aquino,
     S. Hirata, M. T. Hackler, E. Hermes, L. Jensen, J. E. Moore, J. C. Becca,
      V. Konjkov, T. Risthaus, M. Malagoli, A. Marenich, A. Otero-de-la-Roza,
        J. Mullin, P. Nichols, R. Peverati, J. Pittner, Y. Zhao, P.-D. Fan,
        A. Fonari, M. J. Williamson, R. J. Harrison, J. R. Rehr, M. Dupuis,
     D. Silverstein, D. M. A. Smith, J. Nieplocha, V. Tipparaju, M. Krishnan,
     B. E. Van Kuiken, A. Vazquez-Mayagoitia, M. Swart, Q. Wu, T. Van Voorhis,
     A. A. Auer, M. Nooijen, L. D. Crosby, E. Brown, G. Cisneros, G. I. Fann,
   H. Fruchtl, J. Garza, K. Hirao, R. A. Kendall, J. A. Nichols, K. Tsemekhman,
    K. Wolinski, J. Anchell, D. E. Bernholdt, P. Borowski, T. Clark, D. Clerc,
   H. Dachsel, M. J. O. Deegan, K. Dyall, D. Elwood, E. Glendening, M. Gutowski,
   A. C. Hess, J. Jaffe, B. G. Johnson, J. Ju, R. Kobayashi, R. Kutteh, Z. Lin,
   R. Littlefield, X. Long, B. Meng, T. Nakajima, S. Niu, L. Pollack, M. Rosing,
   K. Glaesemann, G. Sandrone, M. Stave, H. Taylor, G. Thomas, J. H. van Lenthe,
                               A. T. Wong, Z. Zhang.

 Total times  cpu:       95.6s     wall:       95.6s
