 argument  1 = input.nw
  NWChem w/ OpenMP: maximum threads =    1



============================== echo of input deck ==============================
echo

title "optimization of LiF"

start LiF

#============= Define the basis ================
basis
 * library 6-311++G**
end

#============= Define the method ===============
# as singlet
scf
 rhf
 singlet
 thresh 1e-8
end

driver
 tight
 xyz
end

freq
 animate
end

mp2
 freeze core
 tight
end


#============ Now do the geometry scan ===========

geometry units angstrom
Li        0.0000000000      0.0000000000      0.00066850000
F        0.0000000000      0.0000000000       1.50066850000
symmetry c1
end




task mp2 optimize
task mp2 frequencies




================================================================================


                                         
                                         


             Northwest Computational Chemistry Package (NWChem) 7.2.1
             --------------------------------------------------------


                    Environmental Molecular Sciences Laboratory
                       Pacific Northwest National Laboratory
                                Richland, WA 99352

                              Copyright (c) 1994-2022
                       Pacific Northwest National Laboratory
                            Battelle Memorial Institute

             NWChem is an open-source computational chemistry package
                        distributed under the terms of the
                      Educational Community License (ECL) 2.0
             A copy of the license is included with this distribution
                              in the LICENSE.TXT file

                                  ACKNOWLEDGMENT
                                  --------------

            This software and its documentation were developed at the
            EMSL at Pacific Northwest National Laboratory, a multiprogram
            national laboratory, operated for the U.S. Department of Energy
            by Battelle under Contract Number DE-AC05-76RL01830. Support
            for this work was provided by the Department of Energy Office
            of Biological and Environmental Research, Office of Basic
            Energy Sciences, and the Office of Advanced Scientific Computing.


           Job information
           ---------------

    hostname        = cpn-f13-36.core.ccr.buffalo.edu
    program         = nwchem
    date            = Sun Mar  3 17:26:27 2024

    compiled        = Wed_Jan_17_15:19:23_2024
    source          = /projects/academic/cyberwksp21/SOFTWARE_NEW_ENV/nwchem
    nwchem branch   = 7.2.1
    nwchem revision = v7.2.0-beta1-968-g8bfd0073a6
    ga revision     = 5.8.0
    use scalapack   = T
    input           = input.nw
    prefix          = LiF.
    data base       = ./LiF.db
    status          = startup
    nproc           =        3
    time left       =     -1s



           Memory information
           ------------------

    heap     =     26214396 doubles =      200.0 Mbytes
    stack    =     26214401 doubles =      200.0 Mbytes
    global   =     52428800 doubles =      400.0 Mbytes (distinct from heap & stack)
    total    =    104857597 doubles =      800.0 Mbytes
    verify   = yes
    hardfail = no 


           Directory information
           ---------------------

  0 permanent = .
  0 scratch   = .




                                NWChem Input Module
                                -------------------


                                optimization of LiF
                                -------------------


 Summary of "ao basis" -> "" (cartesian)
 ------------------------------------------------------------------------------
       Tag                 Description            Shells   Functions and Types
 ---------------- ------------------------------  ------  ---------------------
 *                         6-311++G**                 on all atoms 



 Scaling coordinates for geometry "geometry" by  1.889725989
 (inverse scale =  0.529177249)

 Turning off AUTOSYM since
 SYMMETRY directive was detected!


          ------
          auto-z
          ------
  no constraints, skipping    0.0000000000000000     
  no constraints, skipping    0.0000000000000000     


                             Geometry "geometry" -> ""
                             -------------------------

 Output coordinates in angstroms (scale by  1.889725989 to convert to a.u.)

  No.       Tag          Charge          X              Y              Z
 ---- ---------------- ---------- -------------- -------------- --------------
    1 Li                   3.0000     0.00000000     0.00000000    -1.12500000
    2 F                    9.0000     0.00000000     0.00000000     0.37500000

      Atomic Mass 
      ----------- 

      Li                 7.016000
      F                 18.998400


 Effective nuclear repulsion energy (a.u.)       9.5251904820

            Nuclear Dipole moment (a.u.) 
            ----------------------------
        X                 Y               Z
 ---------------- ---------------- ----------------
     0.0000000000     0.0000000000    -0.0000000000



                                Z-matrix (autoz)
                                -------- 

 Units are Angstrom for bonds and degrees for angles

      Type          Name      I     J     K     L     M      Value
      ----------- --------  ----- ----- ----- ----- ----- ----------
    1 Stretch                  1     2                       1.50000


            XYZ format geometry
            -------------------
     2
 geometry
 Li                    0.00000000     0.00000000    -1.12500000
 F                     0.00000000     0.00000000     0.37500000

 ==============================================================================
                                internuclear distances
 ------------------------------------------------------------------------------
       center one      |      center two      | atomic units |  angstroms
 ------------------------------------------------------------------------------
    2 F                |   1 Li               |     2.83459  |     1.50000
 ------------------------------------------------------------------------------
                         number of included internuclear distances:          1
 ==============================================================================





                           NWChem Geometry Optimization
                           ----------------------------




                                optimization of LiF


  no constraints, skipping    0.0000000000000000     
 maximum gradient threshold         (gmax) =   0.000015
 rms gradient threshold             (grms) =   0.000010
 maximum cartesian step threshold   (xmax) =   0.000060
 rms cartesian step threshold       (xrms) =   0.000040
 fixed trust radius                (trust) =   0.300000
 maximum step size to saddle      (sadstp) =   0.100000
 energy precision                  (eprec) =   1.0D-07
 maximum number of steps          (nptopt) =   40
 initial hessian option           (inhess) =    0
 line search option               (linopt) =    1
 hessian update option            (modupd) =    1
 saddle point option              (modsad) =    0
 initial eigen-mode to follow     (moddir) =    0
 initial variable to follow       (vardir) =    0
 follow first negative mode     (firstneg) =    T
 apply conjugacy                    (opcg) =    F
 source of zmatrix                         =   autoz   


          -------------------
          Energy Minimization
          -------------------


 Names of Z-matrix variables 
    1         

 Variables with the same non-blank name are constrained to be equal


 Using diagonal initial Hessian 
 Scaling for Hessian diagonals: bonds = 1.00  angles = 0.25  torsions = 0.10

          --------
          Step   0
          --------


                         Geometry "geometry" -> "geometry"
                         ---------------------------------

 Output coordinates in angstroms (scale by  1.889725989 to convert to a.u.)

  No.       Tag          Charge          X              Y              Z
 ---- ---------------- ---------- -------------- -------------- --------------
    1 Li                   3.0000     0.00000000     0.00000000    -1.12500000
    2 F                    9.0000     0.00000000     0.00000000     0.37500000

      Atomic Mass 
      ----------- 

      Li                 7.016000
      F                 18.998400


 Effective nuclear repulsion energy (a.u.)       9.5251904820

            Nuclear Dipole moment (a.u.) 
            ----------------------------
        X                 Y               Z
 ---------------- ---------------- ----------------
     0.0000000000     0.0000000000    -0.0000000000

                      Basis "ao basis" -> "ao basis" (cartesian)
                      -----
  Li (Lithium)
  ------------
            Exponent  Coefficients 
       -------------- ---------------------------------------------------------
  1 S  9.00460000E+02  0.002287
  1 S  1.34433000E+02  0.017635
  1 S  3.04365000E+01  0.087343
  1 S  8.62639000E+00  0.280977
  1 S  2.48332000E+00  0.658741
  1 S  3.03179000E-01  0.118712

  2 S  4.86890000E+00  0.093329
  2 S  8.56924000E-01  0.943045
  2 S  2.43227000E-01 -0.002798

  3 P  4.86890000E+00  0.032766
  3 P  8.56924000E-01  0.159792
  3 P  2.43227000E-01  0.885667

  4 S  6.35070000E-02  1.000000

  5 P  6.35070000E-02  1.000000

  6 S  2.43683000E-02  1.000000

  7 P  2.43683000E-02  1.000000

  8 S  7.40000000E-03  1.000000

  9 P  7.40000000E-03  1.000000

 10 D  2.00000000E-01  1.000000

  F (Fluorine)
  ------------
            Exponent  Coefficients 
       -------------- ---------------------------------------------------------
  1 S  1.14271000E+04  0.001801
  1 S  1.72235000E+03  0.013742
  1 S  3.95746000E+02  0.068133
  1 S  1.15139000E+02  0.233325
  1 S  3.36026000E+01  0.589086
  1 S  4.91901000E+00  0.299505

  2 S  5.54441000E+01  0.114536
  2 S  1.26323000E+01  0.920512
  2 S  3.71756000E+00 -0.003378

  3 P  5.54441000E+01  0.035461
  3 P  1.26323000E+01  0.237451
  3 P  3.71756000E+00  0.820458

  4 S  1.16545000E+00  1.000000

  5 P  1.16545000E+00  1.000000

  6 S  3.21892000E-01  1.000000

  7 P  3.21892000E-01  1.000000

  8 S  1.07600000E-01  1.000000

  9 P  1.07600000E-01  1.000000

 10 D  1.75000000E+00  1.000000



 Summary of "ao basis" -> "ao basis" (cartesian)
 ------------------------------------------------------------------------------
       Tag                 Description            Shells   Functions and Types
 ---------------- ------------------------------  ------  ---------------------
 Li                        6-311++G**               10       23   5s4p1d
 F                         6-311++G**               10       23   5s4p1d


                                 NWChem SCF Module
                                 -----------------


                                optimization of LiF



  ao basis        = "ao basis"
  functions       =    46
  atoms           =     2
  closed shells   =     6
  open shells     =     0
  charge          =   0.00
  wavefunction    = RHF 
  input vectors   = atomic
  output vectors  = ./LiF.movecs
  use symmetry    = F
  symmetry adapt  = F


 Summary of "ao basis" -> "ao basis" (cartesian)
 ------------------------------------------------------------------------------
       Tag                 Description            Shells   Functions and Types
 ---------------- ------------------------------  ------  ---------------------
 Li                        6-311++G**               10       23   5s4p1d
 F                         6-311++G**               10       23   5s4p1d



 Forming initial guess at       0.5s


      Superposition of Atomic Density Guess
      -------------------------------------

 Sum of atomic energies:        -106.83987887

      Non-variational initial energy
      ------------------------------

 Total energy =    -106.582245
 1-e energy   =    -167.231797
 2-e energy   =      51.124361
 HOMO         =      -0.678172
 LUMO         =      -0.058967


 Starting SCF solution at       0.5s



 ----------------------------------------------
         Quadratically convergent ROHF

 Convergence threshold     :          1.000E-08
 Maximum no. of iterations :           30
 Final Fock-matrix accuracy:          1.000E-10
 ----------------------------------------------

  avail0,avail1,avail0-avail1                210022               210022                    0
  avail0,avail1,avail0-avail1                210022               210022                    0
  avail0,avail1,avail0-avail1                210022               210022                    0
  avail0,avail1,avail0-avail1                210022               210022                    0

 Integral file          = ./LiF.aoints.0
 Record size in doubles =  65536        No. of integs per rec  =  43688
 Max. records in memory =      9        Max. records in file   =  14777
 No. of bits per label  =      8        No. of bits per value  =     64


 #quartets = 2.216D+04 #integrals = 1.674D+05 #direct =  0.0% #cached =100.0%


File balance: exchanges=     0  moved=     0  time=   0.0


              iter       energy          gnorm     gmax       time
             ----- ------------------- --------- --------- --------
                 1     -106.8999855494  1.27D+00  4.71D-01      0.6
                 2     -106.9717288785  1.83D-01  6.90D-02      0.6
                 3     -106.9733213887  1.13D-02  3.89D-03      0.6
                 4     -106.9733363675  5.09D-05  1.75D-05      0.6
                 5     -106.9733363678  1.06D-09  3.11D-10      0.7


       Final RHF  results 
       ------------------ 

         Total SCF energy =   -106.973336367804
      One-electron energy =   -170.165218483024
      Two-electron energy =     53.666691633226
 Nuclear repulsion energy =      9.525190481995

        Time for solution =      0.2s


             Final eigenvalues
             -----------------

              1      
    1  -26.1171
    2   -2.4344
    3   -1.3878
    4   -0.5082
    5   -0.4842
    6   -0.4842
    7   -0.0093
    8    0.0156
    9    0.0156
   10    0.0212
   11    0.0282
   12    0.0635
   13    0.0635
   14    0.0921
   15    0.1423
   16    0.1793

                       ROHF Final Molecular Orbital Analysis
                       -------------------------------------

 Vector    2  Occ=2.000000D+00  E=-2.434443D+00
              MO Center= -1.3D-17,  1.3D-17, -1.1D+00, r^2= 1.3D-01
   Bfn.  Coefficient  Atom+Function         Bfn.  Coefficient  Atom+Function  
  ----- ------------  ---------------      ----- ------------  ---------------
     1      0.615044  1 Li s                  2      0.425093  1 Li s          

 Vector    3  Occ=2.000000D+00  E=-1.387761D+00
              MO Center=  5.8D-17,  1.2D-16,  3.3D-01, r^2= 3.8D-01
   Bfn.  Coefficient  Atom+Function         Bfn.  Coefficient  Atom+Function  
  ----- ------------  ---------------      ----- ------------  ---------------
    29      0.610081  2 F  s                 33      0.532251  2 F  s          
    25     -0.210038  2 F  s          

 Vector    4  Occ=2.000000D+00  E=-5.081962D-01
              MO Center=  5.9D-17, -1.4D-16,  3.9D-01, r^2= 5.3D-01
   Bfn.  Coefficient  Atom+Function         Bfn.  Coefficient  Atom+Function  
  ----- ------------  ---------------      ----- ------------  ---------------
    32      0.447786  2 F  pz                36      0.403424  2 F  pz         
    28      0.296058  2 F  pz                 6     -0.166783  1 Li s          

 Vector    5  Occ=2.000000D+00  E=-4.841866D-01
              MO Center=  5.1D-16, -2.0D-15,  3.4D-01, r^2= 5.9D-01
   Bfn.  Coefficient  Atom+Function         Bfn.  Coefficient  Atom+Function  
  ----- ------------  ---------------      ----- ------------  ---------------
    30      0.440401  2 F  px                34      0.409187  2 F  px         
    26      0.291541  2 F  px         

 Vector    6  Occ=2.000000D+00  E=-4.841866D-01
              MO Center= -1.4D-15,  1.6D-16,  3.4D-01, r^2= 5.9D-01
   Bfn.  Coefficient  Atom+Function         Bfn.  Coefficient  Atom+Function  
  ----- ------------  ---------------      ----- ------------  ---------------
    31      0.440401  2 F  py                35      0.409187  2 F  py         
    27      0.291541  2 F  py         

 Vector    7  Occ=0.000000D+00  E=-9.293175D-03
              MO Center=  5.9D-15,  3.5D-15, -3.3D+00, r^2= 1.6D+01
   Bfn.  Coefficient  Atom+Function         Bfn.  Coefficient  Atom+Function  
  ----- ------------  ---------------      ----- ------------  ---------------
    14      0.610347  1 Li s                 17     -0.273656  1 Li pz         
    10      0.223312  1 Li s                 13     -0.212916  1 Li pz         
     9     -0.153215  1 Li pz         

 Vector    8  Occ=0.000000D+00  E= 1.563344D-02
              MO Center=  4.3D-13, -1.5D-13, -1.1D+00, r^2= 5.3D+01
   Bfn.  Coefficient  Atom+Function         Bfn.  Coefficient  Atom+Function  
  ----- ------------  ---------------      ----- ------------  ---------------
    15      1.059138  1 Li px                16     -0.378991  1 Li py         
    11     -0.232797  1 Li px         

 Vector    9  Occ=0.000000D+00  E= 1.563344D-02
              MO Center= -4.2D-14, -1.2D-13, -1.1D+00, r^2= 5.3D+01
   Bfn.  Coefficient  Atom+Function         Bfn.  Coefficient  Atom+Function  
  ----- ------------  ---------------      ----- ------------  ---------------
    16      1.059138  1 Li py                15      0.378991  1 Li px         
    12     -0.232797  1 Li py         

 Vector   10  Occ=0.000000D+00  E= 2.117558D-02
              MO Center= -2.3D-13,  1.9D-13, -3.3D+00, r^2= 4.5D+01
   Bfn.  Coefficient  Atom+Function         Bfn.  Coefficient  Atom+Function  
  ----- ------------  ---------------      ----- ------------  ---------------
    17      1.109173  1 Li pz                10      0.968865  1 Li s          
    13     -0.626788  1 Li pz                14     -0.592346  1 Li s          

 Vector   11  Occ=0.000000D+00  E= 2.818200D-02
              MO Center= -1.5D-13,  7.8D-14,  1.7D+00, r^2= 3.9D+01
   Bfn.  Coefficient  Atom+Function         Bfn.  Coefficient  Atom+Function  
  ----- ------------  ---------------      ----- ------------  ---------------
    10      1.571991  1 Li s                 14     -1.489862  1 Li s          
     6     -0.729732  1 Li s                 17     -0.526535  1 Li pz         
     9     -0.377561  1 Li pz                37      0.322443  2 F  s          

 Vector   12  Occ=0.000000D+00  E= 6.346850D-02
              MO Center=  1.4D-14, -1.9D-15, -1.3D+00, r^2= 2.5D+01
   Bfn.  Coefficient  Atom+Function         Bfn.  Coefficient  Atom+Function  
  ----- ------------  ---------------      ----- ------------  ---------------
    11      1.457924  1 Li px                15     -0.796999  1 Li px         
    12     -0.191349  1 Li py                38     -0.184375  2 F  px         

 Vector   13  Occ=0.000000D+00  E= 6.346850D-02
              MO Center=  1.2D-15,  7.8D-15, -1.3D+00, r^2= 2.5D+01
   Bfn.  Coefficient  Atom+Function         Bfn.  Coefficient  Atom+Function  
  ----- ------------  ---------------      ----- ------------  ---------------
    12      1.457924  1 Li py                16     -0.796999  1 Li py         
    11      0.191349  1 Li px                39     -0.184375  2 F  py         

 Vector   14  Occ=0.000000D+00  E= 9.207954D-02
              MO Center= -1.5D-14,  1.2D-15,  2.4D-01, r^2= 2.3D+01
   Bfn.  Coefficient  Atom+Function         Bfn.  Coefficient  Atom+Function  
  ----- ------------  ---------------      ----- ------------  ---------------
    13      1.789864  1 Li pz                10      1.152524  1 Li s          
    17     -0.717535  1 Li pz                 9     -0.692964  1 Li pz         
     6     -0.662326  1 Li s                 40     -0.377482  2 F  pz         
    14     -0.363642  1 Li s          

 Vector   15  Occ=0.000000D+00  E= 1.423317D-01
              MO Center= -1.7D-14, -1.7D-14, -2.3D+00, r^2= 1.5D+01
   Bfn.  Coefficient  Atom+Function         Bfn.  Coefficient  Atom+Function  
  ----- ------------  ---------------      ----- ------------  ---------------
     6      2.799701  1 Li s                 10     -2.807072  1 Li s          
    14      0.901132  1 Li s                  9     -0.715476  1 Li pz         
    13      0.627533  1 Li pz                40      0.264799  2 F  pz         
     2     -0.243750  1 Li s                 17     -0.208032  1 Li pz         
    18     -0.152867  1 Li dxx               21     -0.152867  1 Li dyy        

 Vector   16  Occ=0.000000D+00  E= 1.792790D-01
              MO Center= -4.3D-16,  1.2D-14, -1.3D+00, r^2= 1.3D+01
   Bfn.  Coefficient  Atom+Function         Bfn.  Coefficient  Atom+Function  
  ----- ------------  ---------------      ----- ------------  ---------------
     8      1.743662  1 Li py                12     -1.493402  1 Li py         
     7     -0.470296  1 Li px                16      0.467028  1 Li py         
    11      0.402797  1 Li px                39     -0.343504  2 F  py         

 Vector   17  Occ=0.000000D+00  E= 1.792790D-01
              MO Center=  2.5D-14,  3.8D-15, -1.3D+00, r^2= 1.3D+01
   Bfn.  Coefficient  Atom+Function         Bfn.  Coefficient  Atom+Function  
  ----- ------------  ---------------      ----- ------------  ---------------
     7      1.743662  1 Li px                11     -1.493402  1 Li px         
     8      0.470296  1 Li py                15      0.467028  1 Li px         
    12     -0.402797  1 Li py                38     -0.343504  2 F  px         

 Vector   18  Occ=0.000000D+00  E= 2.188045D-01
              MO Center= -7.2D-15, -6.6D-15, -5.6D-01, r^2= 1.3D+01
   Bfn.  Coefficient  Atom+Function         Bfn.  Coefficient  Atom+Function  
  ----- ------------  ---------------      ----- ------------  ---------------
     6      4.498170  1 Li s                 37     -3.452274  2 F  s          
     9      3.249708  1 Li pz                10     -1.718136  1 Li s          
    13     -1.568406  1 Li pz                40      0.995865  2 F  pz         
    17      0.398973  1 Li pz                14      0.383312  1 Li s          
    33      0.225313  2 F  s          

 Vector   19  Occ=0.000000D+00  E= 4.109654D-01
              MO Center=  2.6D-15, -7.7D-17,  4.3D-01, r^2= 4.8D+00
   Bfn.  Coefficient  Atom+Function         Bfn.  Coefficient  Atom+Function  
  ----- ------------  ---------------      ----- ------------  ---------------
    38      1.661584  2 F  px                 7     -0.638074  1 Li px         
    34     -0.634216  2 F  px                39     -0.385386  2 F  py         

 Vector   20  Occ=0.000000D+00  E= 4.109654D-01
              MO Center= -7.4D-17,  1.9D-15,  4.3D-01, r^2= 4.8D+00
   Bfn.  Coefficient  Atom+Function         Bfn.  Coefficient  Atom+Function  
  ----- ------------  ---------------      ----- ------------  ---------------
    39      1.661584  2 F  py                 8     -0.638074  1 Li py         
    35     -0.634216  2 F  py                38      0.385386  2 F  px         

 Vector   21  Occ=0.000000D+00  E= 4.173481D-01
              MO Center= -1.6D-15, -1.7D-15,  1.3D+00, r^2= 4.5D+00
   Bfn.  Coefficient  Atom+Function         Bfn.  Coefficient  Atom+Function  
  ----- ------------  ---------------      ----- ------------  ---------------
    40      1.414141  2 F  pz                37      1.205855  2 F  s          
    10     -0.932142  1 Li s                  6      0.745058  1 Li s          
    33     -0.612040  2 F  s                 36     -0.581035  2 F  pz         
    13     -0.535550  1 Li pz                14      0.174607  1 Li s          
    23     -0.159951  1 Li dzz        

 Vector   22  Occ=0.000000D+00  E= 5.818831D-01
              MO Center=  3.2D-15,  4.6D-15, -1.1D+00, r^2= 2.5D+00
   Bfn.  Coefficient  Atom+Function         Bfn.  Coefficient  Atom+Function  
  ----- ------------  ---------------      ----- ------------  ---------------
    19      1.691907  1 Li dxy               18      0.183694  1 Li dxx        
    21     -0.183694  1 Li dyy        


 center of mass
 --------------
 x =   0.00000000 y =   0.00000000 z =  -0.05583228

 moments of inertia (a.u.)
 ------------------
          41.169252676051           0.000000000000           0.000000000000
           0.000000000000          41.169252676051           0.000000000000
           0.000000000000           0.000000000000           0.000000000000

  Mulliken analysis of the total density
  --------------------------------------

    Atom       Charge   Shell Charges
 -----------   ------   -------------------------------------------------------
    1 Li   3     2.33   1.20  0.79  0.16  0.08  0.06 -0.01 -0.00  0.00  0.00  0.05
    2 F    9     9.67   1.08  0.92  1.14  1.07  2.41  0.98  2.01 -0.09  0.18 -0.02

       Multipole analysis of the density wrt the origin
       ------------------------------------------------

     L   x y z        total         open         nuclear
     -   - - -        -----         ----         -------
     0   0 0 0     -0.000000      0.000000     12.000000

     1   1 0 0      0.000000      0.000000      0.000000
     1   0 1 0      0.000000      0.000000      0.000000
     1   0 0 1     -2.481199      0.000000     -0.000000

     2   2 0 0     -5.215969      0.000000      0.000000
     2   1 1 0     -0.000000      0.000000      0.000000
     2   1 0 1     -0.000000      0.000000      0.000000
     2   0 2 0     -5.215969      0.000000      0.000000
     2   0 1 1     -0.000000      0.000000      0.000000
     2   0 0 2     -0.946167      0.000000     18.078513


 Parallel integral file used       6 records with       0 large values

                   NWChem MP2 Semi-direct Energy/Gradient Module
                   ---------------------------------------------


                                optimization of LiF


  Basis functions       =     46
  Molecular orbitals    =     46
  Frozen core           =      0
  Frozen virtuals       =      0
  Active alpha occupied =      6
  Active beta occupied  =      6
  Active alpha virtual  =     40
  Active beta virtual   =     40
  Use MO symmetry       = F
  Use skeleton AO sym   = F

  AO/Fock/Back tols     =   1.0D-11  1.0D-11  1.0D-11
  avail0,avail1,avail0-avail1                210022               210022                    0
  avail0,avail1,avail0-avail1                210022               210022                    0
  avail0,avail1,avail0-avail1                210022               210022                    0
  avail0,avail1,avail0-avail1                210022               210022                    0

 GA uses MA = F    GA memory limited = T

 Available: 
  local mem=  5.24D+07
 global mem=  5.24D+07
 local disk=  1.02D+09
  mp2_memr nvloc                    14
  nvloc new                    14
   1 passes of   6:        2978296                      19752                    416082.

 Semi-direct pass number   1 of   1  for RHF alpha+beta  at        0.8s
  vrange nnbf                  1081
Node 0 wrote      0.7 Mb in      0.0 s     Agg I/O rate:  3047.0 Mb/s
 Done moints_semi at        0.8s
  mp2_eaf for ta                     -1
  mp2_eaf for tb                     -1
 Done maket at        0.9s
 Done pijab at        0.9s
 Done wijab at        0.9s
 Done lai at        0.9s
 Done nonsep at        1.0s
 Done multipass loop at        1.1s


          -------------------------------------------
          SCF energy                -106.973336367804
          Correlation energy          -0.269299847123
          Singlet pairs               -0.166921057281
          Triplet pairs               -0.102378789843
          Total MP2 energy          -107.242636214928
          -------------------------------------------



          ---------------------------------------------------
                    Spin Component Scaled (SCS) MP2
          Same spin pairs                     -0.068252526562
          Same spin scaling factor             0.333333333333
          Opposite spin pairs                 -0.201047320562
          Opposite spin scaling fact.          1.200000000000
          SCS-MP2 correlation energy          -0.264007626861
          Total SCS-MP2 energy              -107.237343994665
          ---------------------------------------------------

 Start laifock at        1.1s
 Done laifock at        1.1s
                                NWChem CPHF Module
                                ------------------


    scftype = RHF 
    nclosed =    6
      nopen =    0
  variables =      240
  tolerance =   1.0D-06
  max. iter =  100

  avail0,avail1,avail0-avail1                210022               210022                    0
  avail0,avail1,avail0-avail1                210022               210022                    0
  avail0,avail1,avail0-avail1                210022               210022                    0
  avail0,avail1,avail0-avail1                210022               210022                    0

 Integral file          = ./LiF.aoints.0
 Record size in doubles =  65536        No. of integs per rec  =  43688
 Max. records in memory =      9        Max. records in file   =  14777
 No. of bits per label  =      8        No. of bits per value  =     64


 #quartets = 2.216D+04 #integrals = 1.674D+05 #direct =  0.0% #cached =100.0%


File balance: exchanges=     0  moved=     0  time=   0.0

 SCF residual:    1.0615064939271017E-009

            ----- linear solve (tol: 1.0E-06 prod-acc: 9.4E-14) -----

               iter nbas    rnorm     rnorm-scal   ratio     time
               ---- ---- ----------- ----------- --------- -------
                  1    1  2.6438E-02  1.8189E-01    0.0000     1.2
                  2    2  7.6891E-03  5.2901E-02    0.2908     1.2
                  3    3  1.2272E-03  8.4431E-03    0.1596     1.2
                  4    4  2.4951E-04  1.7166E-03    0.2033     1.2
                  5    5  4.1362E-05  2.8457E-04    0.1658     1.2
                  6    6  7.9736E-06  5.4858E-05    0.1928     1.2
                  7    7  1.2051E-06  8.2910E-06    0.1511     1.2
                  8    8  1.6686E-07  1.1480E-06    0.1385     1.2
                  9    9  2.6283E-08  1.8082E-07    0.1575     1.2

 CPHF converged to   1.8D-07 in    9 iters


 Parallel integral file used       6 records with       0 large values

 Start make_tot_dens at        1.2s
 Done make_tot_dens at        1.2s
                Dipole Moments (a.u.)
                --------------
         Nuclear       SCF       SCF+MP2
       ----------- ----------- -----------
 X       0.000000    0.000000    0.000000
 Y       0.000000    0.000000    0.000000
 Z      -0.000000   -2.481199   -2.403400


 MP2 RHF      natural orbital occupation numbers


              1      
    1    1.9996
    2    1.9975
    3    1.9877
    4    1.9740
    5    1.9721
    6    1.9721
    7    0.0239
    8    0.0239
    9    0.0210
   10    0.0105
   11    0.0030
   12    0.0030
   13    0.0030
   14    0.0027
   15    0.0027
   16    0.0019
   17    0.0006
   18    0.0005
   19    0.0005
   20    0.0004
   21    0.0004
   22    0.0004
   23    0.0003
   24    0.0001
   25    0.0001
   26    0.0001
   27    0.0001
   28    0.0001
   29    0.0000
   30    0.0000
   31    0.0000
   32    0.0000
   33    0.0000
   34    0.0000
   35    0.0000
   36    0.0000
   37    0.0000
   38    0.0000
   39    0.0000
   40    0.0000
   41    0.0000
   42    0.0000
   43   -0.0000
   44   -0.0004
   45   -0.0010
   46   -0.0010

  MP2 natural orbitals output to ./LiF.mp2nos



                         mp2 ENERGY GRADIENTS

    atom               coordinates                        gradient
                 x          y          z           x          y          z
   1 Li      0.000000   0.000000  -2.125942   -0.000000  -0.000000   0.034936
   2 F       0.000000   0.000000   0.708647    0.000000   0.000000  -0.034936

                 ----------------------------------------
                 |  Time  |  1-e(secs)   |  2-e(secs)   |
                 ----------------------------------------
                 |  CPU   |       0.00   |       0.16   |
                 ----------------------------------------
                 |  WALL  |       0.00   |       0.16   |
                 ----------------------------------------
 -----------------------
 Performance information
 -----------------------

 Timer overhead =  1.25D-07 seconds/call

               Nr. of calls         CPU time (s)                 Wall time (s)                GFlops
             ---------------    -------------------     ------------------------------   -------------------
Name         Min   Avg   Max    Min     Avg     Max     Min     Avg     Max   Mx/calls   Min     Max     Sum
mp2: moin     1     1     1   6.06E-2 6.06E-2 6.06E-2  6.06E-2 6.06E-2 6.06E-2 6.06E-2   0.0     0.0     0.0   
mp2: make     1     1     1   5.09E-3 7.14E-3 9.14E-3  5.09E-3 7.14E-3 9.14E-3 9.14E-3   0.0     0.0     0.0   
mp2: pija     1     1     1   3.86E-4 3.93E-4 4.05E-4  3.86E-4 3.93E-4 4.05E-4 4.05E-4   0.0     0.0     0.0   
mp2: wija     1     1     1   4.07E-4 4.08E-4 4.09E-4  4.07E-4 4.08E-4 4.09E-4 4.09E-4   0.0     0.0     0.0   
mp2: lai      1     1     1   2.05E-3 2.06E-3 2.06E-3  2.05E-3 2.06E-3 2.06E-3 2.06E-3   0.0     0.0     0.0   
mp2: back     1     1     1   2.40E-2 2.40E-2 2.40E-2  2.40E-2 2.40E-2 2.40E-2 2.40E-2   0.0     0.0     0.0   
mp2: nons     1     1     1   0.12    0.12    0.12     0.12    0.12    0.12    0.12      0.0     0.0     0.0   
mp2: laif     1     1     1   2.30E-2 2.30E-2 2.30E-2  2.30E-2 2.30E-2 2.30E-2 2.30E-2   0.0     0.0     0.0   
mp2: cphf     1     1     1   0.13    0.13    0.13     0.13    0.13    0.13    0.13      0.0     0.0     0.0   
mp2: wijf     1     1     1   2.24E-2 2.24E-2 2.24E-2  2.24E-2 2.24E-2 2.24E-2 2.24E-2   0.0     0.0     0.0   
mp2: sep      1     1     1   0.17    0.17    0.17     0.17    0.17    0.17    0.17      0.0     0.0     0.0   
mp2: tota     1     1     1   0.78    0.78    0.78     0.78    0.78    0.78    0.78      0.0     0.0     0.0   

 The average no. of pstat calls per process was 1.20D+01
 with a timing overhead of 1.50D-06s

  no constraints, skipping    0.0000000000000000     

@ Step       Energy      Delta E   Gmax     Grms     Xrms     Xmax   Walltime
@ ---- ---------------- -------- -------- -------- -------- -------- --------
@    0    -107.24263621  0.0D+00  0.03494  0.03494  0.00000  0.00000      1.5
                                                                    



                                Z-matrix (autoz)
                                -------- 

 Units are Angstrom for bonds and degrees for angles

      Type          Name      I     J     K     L     M      Value     Gradient
      ----------- --------  ----- ----- ----- ----- ----- ---------- ----------
    1 Stretch                  1     2                       1.50000   -0.03494

  no constraints, skipping    0.0000000000000000     
  no constraints, skipping    0.0000000000000000     
  no constraints, skipping    0.0000000000000000     
                                 NWChem SCF Module
                                 -----------------


                                optimization of LiF



  ao basis        = "ao basis"
  functions       =    46
  atoms           =     2
  closed shells   =     6
  open shells     =     0
  charge          =   0.00
  wavefunction    = RHF 
  input vectors   = ./LiF.movecs
  output vectors  = ./LiF.movecs
  use symmetry    = F
  symmetry adapt  = F


 Summary of "ao basis" -> "ao basis" (cartesian)
 ------------------------------------------------------------------------------
       Tag                 Description            Shells   Functions and Types
 ---------------- ------------------------------  ------  ---------------------
 Li                        6-311++G**               10       23   5s4p1d
 F                         6-311++G**               10       23   5s4p1d



 Forming initial guess at       1.7s


 Loading old vectors from job with title :

optimization of LiF


 Starting SCF solution at       1.7s



 ----------------------------------------------
         Quadratically convergent ROHF

 Convergence threshold     :          1.000E-08
 Maximum no. of iterations :           30
 Final Fock-matrix accuracy:          1.000E-10
 ----------------------------------------------

  avail0,avail1,avail0-avail1                210022               210022                    0
  avail0,avail1,avail0-avail1                210022               210022                    0
  avail0,avail1,avail0-avail1                210022               210022                    0
  avail0,avail1,avail0-avail1                210022               210022                    0

 Integral file          = ./LiF.aoints.0
 Record size in doubles =  65536        No. of integs per rec  =  43688
 Max. records in memory =      9        Max. records in file   =  14777
 No. of bits per label  =      8        No. of bits per value  =     64


 #quartets = 2.216D+04 #integrals = 1.674D+05 #direct =  0.0% #cached =100.0%


File balance: exchanges=     0  moved=     0  time=   0.0


              iter       energy          gnorm     gmax       time
             ----- ------------------- --------- --------- --------
                 1     -106.9744931831  2.88D-02  1.00D-02      1.8
                 2     -106.9745510079  5.76D-04  1.98D-04      1.8
                 3     -106.9745510668  1.86D-07  6.47D-08      1.8
                 4     -106.9745510668  3.71D-10  1.13D-10      1.8


       Final RHF  results 
       ------------------ 

         Total SCF energy =   -106.974551066835
      One-electron energy =   -169.839736609549
      Two-electron energy =     53.515161178806
 Nuclear repulsion energy =      9.350024363909

        Time for solution =      0.1s


             Final eigenvalues
             -----------------

              1      
    1  -26.1156
    2   -2.4380
    3   -1.3844
    4   -0.5048
    5   -0.4810
    6   -0.4810
    7   -0.0100
    8    0.0156
    9    0.0156
   10    0.0208
   11    0.0282
   12    0.0629
   13    0.0629
   14    0.0921
   15    0.1417
   16    0.1780

                       ROHF Final Molecular Orbital Analysis
                       -------------------------------------

 Vector    2  Occ=2.000000D+00  E=-2.438012D+00
              MO Center= -1.1D-17,  1.3D-17, -1.1D+00, r^2= 1.3D-01
   Bfn.  Coefficient  Atom+Function         Bfn.  Coefficient  Atom+Function  
  ----- ------------  ---------------      ----- ------------  ---------------
     1      0.615443  1 Li s                  2      0.425470  1 Li s          

 Vector    3  Occ=2.000000D+00  E=-1.384387D+00
              MO Center= -2.6D-17,  2.3D-17,  3.5D-01, r^2= 3.8D-01
   Bfn.  Coefficient  Atom+Function         Bfn.  Coefficient  Atom+Function  
  ----- ------------  ---------------      ----- ------------  ---------------
    29      0.610468  2 F  s                 33      0.531394  2 F  s          
    25     -0.210064  2 F  s          

 Vector    4  Occ=2.000000D+00  E=-5.047540D-01
              MO Center= -4.9D-17, -1.3D-16,  4.0D-01, r^2= 5.4D-01
   Bfn.  Coefficient  Atom+Function         Bfn.  Coefficient  Atom+Function  
  ----- ------------  ---------------      ----- ------------  ---------------
    32      0.446215  2 F  pz                36      0.404500  2 F  pz         
    28      0.295337  2 F  pz                 6     -0.165512  1 Li s          

 Vector    5  Occ=2.000000D+00  E=-4.809542D-01
              MO Center=  2.0D-16,  6.0D-17,  3.6D-01, r^2= 5.9D-01
   Bfn.  Coefficient  Atom+Function         Bfn.  Coefficient  Atom+Function  
  ----- ------------  ---------------      ----- ------------  ---------------
    31      0.424660  2 F  py                35      0.394929  2 F  py         
    27      0.281308  2 F  py         

 Vector    6  Occ=2.000000D+00  E=-4.809542D-01
              MO Center=  2.2D-16, -3.3D-16,  3.6D-01, r^2= 5.9D-01
   Bfn.  Coefficient  Atom+Function         Bfn.  Coefficient  Atom+Function  
  ----- ------------  ---------------      ----- ------------  ---------------
    30      0.424660  2 F  px                34      0.394929  2 F  px         
    26      0.281308  2 F  px         

 Vector    7  Occ=0.000000D+00  E=-9.956142D-03
              MO Center= -1.2D-15,  1.2D-15, -3.3D+00, r^2= 1.6D+01
   Bfn.  Coefficient  Atom+Function         Bfn.  Coefficient  Atom+Function  
  ----- ------------  ---------------      ----- ------------  ---------------
    14      0.594850  1 Li s                 17     -0.266543  1 Li pz         
    10      0.239055  1 Li s                 13     -0.216533  1 Li pz         
     9     -0.158177  1 Li pz         

 Vector    8  Occ=0.000000D+00  E= 1.557060D-02
              MO Center=  1.2D-14,  5.9D-14, -1.2D+00, r^2= 5.3D+01
   Bfn.  Coefficient  Atom+Function         Bfn.  Coefficient  Atom+Function  
  ----- ------------  ---------------      ----- ------------  ---------------
    16      1.100893  1 Li py                12     -0.238896  1 Li py         
    15      0.220466  1 Li px         

 Vector    9  Occ=0.000000D+00  E= 1.557060D-02
              MO Center= -7.4D-14,  1.5D-14, -1.2D+00, r^2= 5.3D+01
   Bfn.  Coefficient  Atom+Function         Bfn.  Coefficient  Atom+Function  
  ----- ------------  ---------------      ----- ------------  ---------------
    15      1.100893  1 Li px                11     -0.238896  1 Li px         
    16     -0.220466  1 Li py         

 Vector   10  Occ=0.000000D+00  E= 2.084372D-02
              MO Center= -7.7D-13,  4.7D-13, -3.6D+00, r^2= 4.3D+01
   Bfn.  Coefficient  Atom+Function         Bfn.  Coefficient  Atom+Function  
  ----- ------------  ---------------      ----- ------------  ---------------
    17      1.087207  1 Li pz                10      1.025067  1 Li s          
    14     -0.660783  1 Li s                 13     -0.615589  1 Li pz         
     6     -0.157487  1 Li s          

 Vector   11  Occ=0.000000D+00  E= 2.823094D-02
              MO Center=  8.5D-13, -5.3D-13,  1.9D+00, r^2= 3.9D+01
   Bfn.  Coefficient  Atom+Function         Bfn.  Coefficient  Atom+Function  
  ----- ------------  ---------------      ----- ------------  ---------------
    10      1.514389  1 Li s                 14     -1.463144  1 Li s          
     6     -0.705275  1 Li s                 17     -0.574525  1 Li pz         
     9     -0.378509  1 Li pz                37      0.315960  2 F  s          
    13      0.182100  1 Li pz         

 Vector   12  Occ=0.000000D+00  E= 6.291056D-02
              MO Center= -3.4D-15, -4.3D-15, -1.3D+00, r^2= 2.5D+01
   Bfn.  Coefficient  Atom+Function         Bfn.  Coefficient  Atom+Function  
  ----- ------------  ---------------      ----- ------------  ---------------
    12      1.111376  1 Li py                11      0.952619  1 Li px         
    16     -0.611076  1 Li py                15     -0.523785  1 Li px         

 Vector   13  Occ=0.000000D+00  E= 6.291056D-02
              MO Center= -2.7D-15,  2.2D-15, -1.3D+00, r^2= 2.5D+01
   Bfn.  Coefficient  Atom+Function         Bfn.  Coefficient  Atom+Function  
  ----- ------------  ---------------      ----- ------------  ---------------
    11      1.111376  1 Li px                12     -0.952619  1 Li py         
    15     -0.611076  1 Li px                16      0.523785  1 Li py         

 Vector   14  Occ=0.000000D+00  E= 9.208856D-02
              MO Center=  8.7D-15, -5.8D-15,  1.8D-01, r^2= 2.3D+01
   Bfn.  Coefficient  Atom+Function         Bfn.  Coefficient  Atom+Function  
  ----- ------------  ---------------      ----- ------------  ---------------
    13      1.794564  1 Li pz                10      1.118164  1 Li s          
    17     -0.718506  1 Li pz                 9     -0.690395  1 Li pz         
     6     -0.615922  1 Li s                 40     -0.371106  2 F  pz         
    14     -0.350888  1 Li s          

 Vector   15  Occ=0.000000D+00  E= 1.417084D-01
              MO Center= -9.4D-15, -1.0D-14, -2.3D+00, r^2= 1.5D+01
   Bfn.  Coefficient  Atom+Function         Bfn.  Coefficient  Atom+Function  
  ----- ------------  ---------------      ----- ------------  ---------------
    10     -2.794928  1 Li s                  6      2.723048  1 Li s          
    14      0.902731  1 Li s                  9     -0.750981  1 Li pz         
    13      0.630777  1 Li pz                 2     -0.245492  1 Li s          
    40      0.244433  2 F  pz                17     -0.206706  1 Li pz         
    18     -0.151497  1 Li dxx               21     -0.151497  1 Li dyy        

 Vector   16  Occ=0.000000D+00  E= 1.779501D-01
              MO Center= -5.3D-16,  4.4D-16, -1.3D+00, r^2= 1.3D+01
   Bfn.  Coefficient  Atom+Function         Bfn.  Coefficient  Atom+Function  
  ----- ------------  ---------------      ----- ------------  ---------------
     8      1.659990  1 Li py                12     -1.437932  1 Li py         
     7      0.668331  1 Li px                11     -0.578928  1 Li px         
    16      0.451079  1 Li py                39     -0.313780  2 F  py         
    15      0.181610  1 Li px         

 Vector   17  Occ=0.000000D+00  E= 1.779501D-01
              MO Center= -1.3D-14,  5.1D-15, -1.3D+00, r^2= 1.3D+01
   Bfn.  Coefficient  Atom+Function         Bfn.  Coefficient  Atom+Function  
  ----- ------------  ---------------      ----- ------------  ---------------
     7      1.659990  1 Li px                11     -1.437932  1 Li px         
     8     -0.668331  1 Li py                12      0.578928  1 Li py         
    15      0.451079  1 Li px                38     -0.313780  2 F  px         
    16     -0.181610  1 Li py         

 Vector   18  Occ=0.000000D+00  E= 2.186149D-01
              MO Center=  8.2D-16,  1.5D-15, -5.8D-01, r^2= 1.3D+01
   Bfn.  Coefficient  Atom+Function         Bfn.  Coefficient  Atom+Function  
  ----- ------------  ---------------      ----- ------------  ---------------
     6      4.461354  1 Li s                 37     -3.394199  2 F  s          
     9      3.239286  1 Li pz                10     -1.727748  1 Li s          
    13     -1.572929  1 Li pz                40      1.027689  2 F  pz         
    17      0.400096  1 Li pz                14      0.388048  1 Li s          
    33      0.225089  2 F  s          

 Vector   19  Occ=0.000000D+00  E= 4.108842D-01
              MO Center=  6.8D-15, -6.3D-15,  4.4D-01, r^2= 4.8D+00
   Bfn.  Coefficient  Atom+Function         Bfn.  Coefficient  Atom+Function  
  ----- ------------  ---------------      ----- ------------  ---------------
    38      1.238118  2 F  px                39     -1.149800  2 F  py         
    34     -0.477947  2 F  px                 7     -0.469825  1 Li px         
    35      0.443854  2 F  py                 8      0.436311  1 Li py         

 Vector   20  Occ=0.000000D+00  E= 4.108842D-01
              MO Center= -2.2D-14, -2.5D-14,  4.4D-01, r^2= 4.8D+00
   Bfn.  Coefficient  Atom+Function         Bfn.  Coefficient  Atom+Function  
  ----- ------------  ---------------      ----- ------------  ---------------
    39      1.238118  2 F  py                38      1.149800  2 F  px         
    35     -0.477947  2 F  py                 8     -0.469825  1 Li py         
    34     -0.443854  2 F  px                 7     -0.436311  1 Li px         

 Vector   21  Occ=0.000000D+00  E= 4.179040D-01
              MO Center=  1.7D-14,  3.1D-14,  1.3D+00, r^2= 4.5D+00
   Bfn.  Coefficient  Atom+Function         Bfn.  Coefficient  Atom+Function  
  ----- ------------  ---------------      ----- ------------  ---------------
    40      1.378561  2 F  pz                37      1.257351  2 F  s          
    10     -0.918529  1 Li s                  6      0.711261  1 Li s          
    33     -0.644091  2 F  s                 36     -0.569570  2 F  pz         
    13     -0.534506  1 Li pz                14      0.169970  1 Li s          
    23     -0.154627  1 Li dzz        

 Vector   22  Occ=0.000000D+00  E= 5.803548D-01
              MO Center= -3.2D-14, -8.0D-16, -1.1D+00, r^2= 2.5D+00
   Bfn.  Coefficient  Atom+Function         Bfn.  Coefficient  Atom+Function  
  ----- ------------  ---------------      ----- ------------  ---------------
    19      1.708767  1 Li dxy        


 center of mass
 --------------
 x =   0.00000000 y =   0.00000000 z =  -0.04360226

 moments of inertia (a.u.)
 ------------------
          42.726255885065           0.000000000000           0.000000000000
           0.000000000000          42.726255885065           0.000000000000
           0.000000000000           0.000000000000           0.000000000000

  Mulliken analysis of the total density
  --------------------------------------

    Atom       Charge   Shell Charges
 -----------   ------   -------------------------------------------------------
    1 Li   3     2.32   1.20  0.79  0.15  0.08  0.06 -0.01 -0.00  0.00  0.00  0.05
    2 F    9     9.68   1.08  0.92  1.14  1.07  2.40  0.97  2.02 -0.09  0.19 -0.02

       Multipole analysis of the density wrt the origin
       ------------------------------------------------

     L   x y z        total         open         nuclear
     -   - - -        -----         ----         -------
     0   0 0 0     -0.000000      0.000000     12.000000

     1   1 0 0     -0.000000      0.000000      0.000000
     1   0 1 0      0.000000      0.000000      0.000000
     1   0 0 1     -2.531518      0.000000      0.159312

     2   2 0 0     -5.226071      0.000000      0.000000
     2   1 1 0     -0.000000      0.000000      0.000000
     2   1 0 1      0.000000      0.000000      0.000000
     2   0 2 0     -5.226071      0.000000      0.000000
     2   0 1 1     -0.000000      0.000000      0.000000
     2   0 0 2     -0.866724      0.000000     18.764350


 Parallel integral file used       6 records with       0 large values

                   NWChem MP2 Semi-direct Energy/Gradient Module
                   ---------------------------------------------


                                optimization of LiF


  Basis functions       =     46
  Molecular orbitals    =     46
  Frozen core           =      0
  Frozen virtuals       =      0
  Active alpha occupied =      6
  Active beta occupied  =      6
  Active alpha virtual  =     40
  Active beta virtual   =     40
  Use MO symmetry       = F
  Use skeleton AO sym   = F

  AO/Fock/Back tols     =   1.0D-11  1.0D-11  1.0D-11
  avail0,avail1,avail0-avail1                210022               210022                    0
  avail0,avail1,avail0-avail1                210022               210022                    0
  avail0,avail1,avail0-avail1                210022               210022                    0
  avail0,avail1,avail0-avail1                210022               210022                    0

 GA uses MA = F    GA memory limited = T

 Available: 
  local mem=  5.24D+07
 global mem=  5.24D+07
 local disk=  1.02D+09
  mp2_memr nvloc                    14
  nvloc new                    14
   1 passes of   6:         697921                      10251                    312416.

 Semi-direct pass number   1 of   1  for RHF alpha+beta  at        1.9s
  vrange nnbf                  1081
Node 0 wrote      0.7 Mb in      0.0 s     Agg I/O rate:  3106.8 Mb/s
 Done moints_semi at        2.0s
 Done maket at        2.0s
 Done multipass loop at        2.0s


          -------------------------------------------
          SCF energy                -106.974551066835
          Correlation energy          -0.269612500817
          Singlet pairs               -0.167108129425
          Triplet pairs               -0.102504371392
          Total MP2 energy          -107.244163567652
          -------------------------------------------



          ---------------------------------------------------
                    Spin Component Scaled (SCS) MP2
          Same spin pairs                     -0.068336247595
          Same spin scaling factor             0.333333333333
          Opposite spin pairs                 -0.201276253222
          Opposite spin scaling fact.          1.200000000000
          SCS-MP2 correlation energy          -0.264310253065
          Total SCS-MP2 energy              -107.238861319900
          ---------------------------------------------------

 -----------------------
 Performance information
 -----------------------

 Timer overhead =  1.25D-07 seconds/call

               Nr. of calls         CPU time (s)                 Wall time (s)                GFlops
             ---------------    -------------------     ------------------------------   -------------------
Name         Min   Avg   Max    Min     Avg     Max     Min     Avg     Max   Mx/calls   Min     Max     Sum
mp2: moin     1     1     1   6.16E-2 6.16E-2 6.16E-2  6.16E-2 6.16E-2 6.16E-2 6.16E-2   0.0     0.0     0.0   
mp2: make     1     1     1   4.78E-3 5.76E-3 6.95E-3  4.78E-3 5.76E-3 6.95E-3 6.95E-3   0.0     0.0     0.0   
mp2: tota     1     1     1   0.17    0.17    0.17     0.17    0.17    0.17    0.17      0.0     0.0     0.0   

 The average no. of pstat calls per process was 3.00D+00
 with a timing overhead of 3.76D-07s

 Line search: 
     step= 1.00 grad=-1.9D-03 hess= 3.3D-04 energy=   -107.244164 mode=downhill
 new step= 2.83                   predicted energy=   -107.245261
  no constraints, skipping    0.0000000000000000     
  no constraints, skipping    0.0000000000000000     
  no constraints, skipping    0.0000000000000000     

          --------
          Step   1
          --------


                         Geometry "geometry" -> "geometry"
                         ---------------------------------

 Output coordinates in angstroms (scale by  1.889725989 to convert to a.u.)

  No.       Tag          Charge          X              Y              Z
 ---- ---------------- ---------- -------------- -------------- --------------
    1 Li                   3.0000     0.00000000     0.00000000    -1.16475015
    2 F                    9.0000     0.00000000     0.00000000     0.41475015

      Atomic Mass 
      ----------- 

      Li                 7.016000
      F                 18.998400


 Effective nuclear repulsion energy (a.u.)       9.0457632589

            Nuclear Dipole moment (a.u.) 
            ----------------------------
        X                 Y               Z
 ---------------- ---------------- ----------------
     0.0000000000     0.0000000000     0.4507013125

                                 NWChem SCF Module
                                 -----------------


                                optimization of LiF



  ao basis        = "ao basis"
  functions       =    46
  atoms           =     2
  closed shells   =     6
  open shells     =     0
  charge          =   0.00
  wavefunction    = RHF 
  input vectors   = ./LiF.movecs
  output vectors  = ./LiF.movecs
  use symmetry    = F
  symmetry adapt  = F


 Summary of "ao basis" -> "ao basis" (cartesian)
 ------------------------------------------------------------------------------
       Tag                 Description            Shells   Functions and Types
 ---------------- ------------------------------  ------  ---------------------
 Li                        6-311++G**               10       23   5s4p1d
 F                         6-311++G**               10       23   5s4p1d



 Forming initial guess at       2.1s


 Loading old vectors from job with title :

optimization of LiF


 Starting SCF solution at       2.1s



 ----------------------------------------------
         Quadratically convergent ROHF

 Convergence threshold     :          1.000E-08
 Maximum no. of iterations :           30
 Final Fock-matrix accuracy:          1.000E-10
 ----------------------------------------------

  avail0,avail1,avail0-avail1                210022               210022                    0
  avail0,avail1,avail0-avail1                210022               210022                    0
  avail0,avail1,avail0-avail1                210022               210022                    0
  avail0,avail1,avail0-avail1                210022               210022                    0

 Integral file          = ./LiF.aoints.0
 Record size in doubles =  65536        No. of integs per rec  =  43688
 Max. records in memory =      9        Max. records in file   =  14777
 No. of bits per label  =      8        No. of bits per value  =     64


 #quartets = 2.216D+04 #integrals = 1.674D+05 #direct =  0.0% #cached =100.0%


File balance: exchanges=     0  moved=     0  time=   0.0


              iter       energy          gnorm     gmax       time
             ----- ------------------- --------- --------- --------
                 1     -106.9751117118  4.88D-02  1.66D-02      2.2
                 2     -106.9752800407  1.03D-03  3.25D-04      2.2
                 3     -106.9752802219  9.10D-07  2.65D-07      2.3
                 4     -106.9752802219  5.66D-10  2.20D-10      2.3


       Final RHF  results 
       ------------------ 

         Total SCF energy =   -106.975280221903
      One-electron energy =   -169.272803435666
      Two-electron energy =     53.251759954832
 Nuclear repulsion energy =      9.045763258931

        Time for solution =      0.2s


             Final eigenvalues
             -----------------

              1      
    1  -26.1128
    2   -2.4448
    3   -1.3782
    4   -0.4983
    5   -0.4753
    6   -0.4753
    7   -0.0112
    8    0.0154
    9    0.0154
   10    0.0202
   11    0.0284
   12    0.0619
   13    0.0619
   14    0.0921
   15    0.1405
   16    0.1755

                       ROHF Final Molecular Orbital Analysis
                       -------------------------------------

 Vector    2  Occ=2.000000D+00  E=-2.444845D+00
              MO Center= -1.1D-17,  1.4D-17, -1.2D+00, r^2= 1.3D-01
   Bfn.  Coefficient  Atom+Function         Bfn.  Coefficient  Atom+Function  
  ----- ------------  ---------------      ----- ------------  ---------------
     1      0.616021  1 Li s                  2      0.426130  1 Li s          

 Vector    3  Occ=2.000000D+00  E=-1.378232D+00
              MO Center= -2.7D-17,  1.7D-17,  3.8D-01, r^2= 3.7D-01
   Bfn.  Coefficient  Atom+Function         Bfn.  Coefficient  Atom+Function  
  ----- ------------  ---------------      ----- ------------  ---------------
    29      0.611208  2 F  s                 33      0.529688  2 F  s          
    25     -0.210119  2 F  s          

 Vector    4  Occ=2.000000D+00  E=-4.983008D-01
              MO Center= -5.3D-17, -1.4D-16,  4.2D-01, r^2= 5.5D-01
   Bfn.  Coefficient  Atom+Function         Bfn.  Coefficient  Atom+Function  
  ----- ------------  ---------------      ----- ------------  ---------------
    32      0.443635  2 F  pz                36      0.405994  2 F  pz         
    28      0.294107  2 F  pz                 6     -0.163007  1 Li s          

 Vector    5  Occ=2.000000D+00  E=-4.752530D-01
              MO Center=  2.9D-16, -4.7D-17,  3.8D-01, r^2= 5.9D-01
   Bfn.  Coefficient  Atom+Function         Bfn.  Coefficient  Atom+Function  
  ----- ------------  ---------------      ----- ------------  ---------------
    31      0.440433  2 F  py                35      0.410126  2 F  py         
    27      0.292068  2 F  py         

 Vector    6  Occ=2.000000D+00  E=-4.752530D-01
              MO Center=  1.2D-16, -2.1D-16,  3.8D-01, r^2= 5.9D-01
   Bfn.  Coefficient  Atom+Function         Bfn.  Coefficient  Atom+Function  
  ----- ------------  ---------------      ----- ------------  ---------------
    30      0.440433  2 F  px                34      0.410126  2 F  px         
    26      0.292068  2 F  px         

 Vector    7  Occ=0.000000D+00  E=-1.119443D-02
              MO Center= -8.2D-16,  5.4D-16, -3.3D+00, r^2= 1.5D+01
   Bfn.  Coefficient  Atom+Function         Bfn.  Coefficient  Atom+Function  
  ----- ------------  ---------------      ----- ------------  ---------------
    14      0.567003  1 Li s                 10      0.266445  1 Li s          
    17     -0.253643  1 Li pz                13     -0.222604  1 Li pz         
     9     -0.167110  1 Li pz         

 Vector    8  Occ=0.000000D+00  E= 1.544982D-02
              MO Center= -1.5D-13,  5.0D-13, -1.2D+00, r^2= 5.3D+01
   Bfn.  Coefficient  Atom+Function         Bfn.  Coefficient  Atom+Function  
  ----- ------------  ---------------      ----- ------------  ---------------
    16      1.068743  1 Li py                15     -0.330242  1 Li px         
    12     -0.226201  1 Li py         

 Vector    9  Occ=0.000000D+00  E= 1.544982D-02
              MO Center= -1.7D-13, -5.1D-14, -1.2D+00, r^2= 5.3D+01
   Bfn.  Coefficient  Atom+Function         Bfn.  Coefficient  Atom+Function  
  ----- ------------  ---------------      ----- ------------  ---------------
    15      1.068743  1 Li px                16      0.330242  1 Li py         
    11     -0.226201  1 Li px         

 Vector   10  Occ=0.000000D+00  E= 2.018958D-02
              MO Center=  2.8D-13, -2.3D-13, -3.9D+00, r^2= 4.1D+01
   Bfn.  Coefficient  Atom+Function         Bfn.  Coefficient  Atom+Function  
  ----- ------------  ---------------      ----- ------------  ---------------
    10      1.103210  1 Li s                 17      1.049420  1 Li pz         
    14     -0.765091  1 Li s                 13     -0.593425  1 Li pz         
     6     -0.184703  1 Li s          

 Vector   11  Occ=0.000000D+00  E= 2.839399D-02
              MO Center=  4.2D-14, -2.1D-13,  2.2D+00, r^2= 3.8D+01
   Bfn.  Coefficient  Atom+Function         Bfn.  Coefficient  Atom+Function  
  ----- ------------  ---------------      ----- ------------  ---------------
    10      1.417322  1 Li s                 14     -1.415219  1 Li s          
     6     -0.660505  1 Li s                 17     -0.646815  1 Li pz         
     9     -0.377081  1 Li pz                37      0.301199  2 F  s          
    13      0.232900  1 Li pz         

 Vector   12  Occ=0.000000D+00  E= 6.187118D-02
              MO Center=  6.8D-18, -6.8D-16, -1.3D+00, r^2= 2.5D+01
   Bfn.  Coefficient  Atom+Function         Bfn.  Coefficient  Atom+Function  
  ----- ------------  ---------------      ----- ------------  ---------------
    12      1.304265  1 Li py                16     -0.725043  1 Li py         
    11     -0.637175  1 Li px                15      0.354207  1 Li px         
    39     -0.170225  2 F  py         

 Vector   13  Occ=0.000000D+00  E= 6.187118D-02
              MO Center= -2.8D-14, -1.4D-14, -1.3D+00, r^2= 2.5D+01
   Bfn.  Coefficient  Atom+Function         Bfn.  Coefficient  Atom+Function  
  ----- ------------  ---------------      ----- ------------  ---------------
    11      1.304265  1 Li px                15     -0.725043  1 Li px         
    12      0.637175  1 Li py                16     -0.354207  1 Li py         
    38     -0.170225  2 F  px         

 Vector   14  Occ=0.000000D+00  E= 9.205239D-02
              MO Center=  2.0D-14,  8.9D-15,  6.8D-02, r^2= 2.3D+01
   Bfn.  Coefficient  Atom+Function         Bfn.  Coefficient  Atom+Function  
  ----- ------------  ---------------      ----- ------------  ---------------
    13      1.802155  1 Li pz                10      1.052168  1 Li s          
    17     -0.720188  1 Li pz                 9     -0.683973  1 Li pz         
     6     -0.528102  1 Li s                 40     -0.358071  2 F  pz         
    14     -0.326593  1 Li s          

 Vector   15  Occ=0.000000D+00  E= 1.404725D-01
              MO Center=  1.4D-14,  4.0D-15, -2.3D+00, r^2= 1.5D+01
   Bfn.  Coefficient  Atom+Function         Bfn.  Coefficient  Atom+Function  
  ----- ------------  ---------------      ----- ------------  ---------------
    10     -2.774154  1 Li s                  6      2.587249  1 Li s          
    14      0.905848  1 Li s                  9     -0.818124  1 Li pz         
    13      0.637121  1 Li pz                 2     -0.247908  1 Li s          
    17     -0.204087  1 Li pz                40      0.203307  2 F  pz         

 Vector   16  Occ=0.000000D+00  E= 1.755376D-01
              MO Center= -4.8D-15, -1.4D-15, -1.3D+00, r^2= 1.3D+01
   Bfn.  Coefficient  Atom+Function         Bfn.  Coefficient  Atom+Function  
  ----- ------------  ---------------      ----- ------------  ---------------
     7      1.761278  1 Li px                11     -1.556806  1 Li px         
    15      0.491056  1 Li px                38     -0.307751  2 F  px         

 Vector   17  Occ=0.000000D+00  E= 1.755376D-01
              MO Center=  1.0D-16, -9.0D-15, -1.3D+00, r^2= 1.3D+01
   Bfn.  Coefficient  Atom+Function         Bfn.  Coefficient  Atom+Function  
  ----- ------------  ---------------      ----- ------------  ---------------
     8      1.761278  1 Li py                12     -1.556806  1 Li py         
    16      0.491056  1 Li py                39     -0.307751  2 F  py         

 Vector   18  Occ=0.000000D+00  E= 2.184629D-01
              MO Center=  2.1D-15, -1.5D-15, -6.1D-01, r^2= 1.3D+01
   Bfn.  Coefficient  Atom+Function         Bfn.  Coefficient  Atom+Function  
  ----- ------------  ---------------      ----- ------------  ---------------
     6      4.379095  1 Li s                 37     -3.270267  2 F  s          
     9      3.210300  1 Li pz                10     -1.742202  1 Li s          
    13     -1.579573  1 Li pz                40      1.077029  2 F  pz         
    17      0.402058  1 Li pz                14      0.396253  1 Li s          
    33      0.225046  2 F  s          

 Vector   19  Occ=0.000000D+00  E= 4.107808D-01
              MO Center= -3.2D-15,  6.8D-15,  4.6D-01, r^2= 4.8D+00
   Bfn.  Coefficient  Atom+Function         Bfn.  Coefficient  Atom+Function  
  ----- ------------  ---------------      ----- ------------  ---------------
    39      1.495383  2 F  py                38     -0.723784  2 F  px         
    35     -0.588666  2 F  py                 8     -0.555296  1 Li py         
    34      0.284922  2 F  px                 7      0.268770  1 Li px         

 Vector   20  Occ=0.000000D+00  E= 4.107808D-01
              MO Center= -6.9D-15, -3.3D-15,  4.6D-01, r^2= 4.8D+00
   Bfn.  Coefficient  Atom+Function         Bfn.  Coefficient  Atom+Function  
  ----- ------------  ---------------      ----- ------------  ---------------
    38      1.495383  2 F  px                39      0.723784  2 F  py         
    34     -0.588666  2 F  px                 7     -0.555296  1 Li px         
    35     -0.284922  2 F  py                 8     -0.268770  1 Li py         

 Vector   21  Occ=0.000000D+00  E= 4.188109D-01
              MO Center=  9.5D-15, -3.7D-15,  1.3D+00, r^2= 4.5D+00
   Bfn.  Coefficient  Atom+Function         Bfn.  Coefficient  Atom+Function  
  ----- ------------  ---------------      ----- ------------  ---------------
    37      1.343420  2 F  s                 40      1.316187  2 F  pz         
    10     -0.893729  1 Li s                 33     -0.698264  2 F  s          
     6      0.652728  1 Li s                 36     -0.548883  2 F  pz         
    13     -0.531119  1 Li pz                14      0.161460  1 Li s          

 Vector   22  Occ=0.000000D+00  E= 5.769796D-01
              MO Center= -1.9D-15,  1.1D-15, -7.0D-01, r^2= 6.0D+00
   Bfn.  Coefficient  Atom+Function         Bfn.  Coefficient  Atom+Function  
  ----- ------------  ---------------      ----- ------------  ---------------
    37     -5.363262  2 F  s                  6      5.104135  1 Li s          
     9      3.104143  1 Li pz                40      2.211117  2 F  pz         
    10     -1.176117  1 Li s                 13     -1.000209  1 Li pz         
    33      0.956264  2 F  s                 23      0.589810  1 Li dzz        
    18     -0.467541  1 Li dxx               21     -0.467541  1 Li dyy        


 center of mass
 --------------
 x =   0.00000000 y =   0.00000000 z =  -0.02123296

 moments of inertia (a.u.)
 ------------------
          45.648854858954           0.000000000000           0.000000000000
           0.000000000000          45.648854858954           0.000000000000
           0.000000000000           0.000000000000           0.000000000000

  Mulliken analysis of the total density
  --------------------------------------

    Atom       Charge   Shell Charges
 -----------   ------   -------------------------------------------------------
    1 Li   3     2.30   1.20  0.79  0.13  0.08  0.06 -0.01 -0.00  0.00  0.00  0.05
    2 F    9     9.70   1.08  0.92  1.14  1.07  2.40  0.97  2.02 -0.08  0.20 -0.02

       Multipole analysis of the density wrt the origin
       ------------------------------------------------

     L   x y z        total         open         nuclear
     -   - - -        -----         ----         -------
     0   0 0 0     -0.000000      0.000000     12.000000

     1   1 0 0     -0.000000      0.000000      0.000000
     1   0 1 0      0.000000      0.000000      0.000000
     1   0 0 1     -2.623765      0.000000      0.450701

     2   2 0 0     -5.243658      0.000000      0.000000
     2   1 1 0     -0.000000      0.000000      0.000000
     2   1 0 1      0.000000      0.000000      0.000000
     2   0 2 0     -5.243658      0.000000      0.000000
     2   0 1 1     -0.000000      0.000000      0.000000
     2   0 0 2     -0.721786      0.000000     20.062553


 Parallel integral file used       6 records with       0 large values

                   NWChem MP2 Semi-direct Energy/Gradient Module
                   ---------------------------------------------


                                optimization of LiF


  Basis functions       =     46
  Molecular orbitals    =     46
  Frozen core           =      0
  Frozen virtuals       =      0
  Active alpha occupied =      6
  Active beta occupied  =      6
  Active alpha virtual  =     40
  Active beta virtual   =     40
  Use MO symmetry       = F
  Use skeleton AO sym   = F

  AO/Fock/Back tols     =   1.0D-11  1.0D-11  1.0D-11
  avail0,avail1,avail0-avail1                210022               210022                    0
  avail0,avail1,avail0-avail1                210022               210022                    0
  avail0,avail1,avail0-avail1                210022               210022                    0
  avail0,avail1,avail0-avail1                210022               210022                    0

 GA uses MA = F    GA memory limited = T

 Available: 
  local mem=  5.24D+07
 global mem=  5.24D+07
 local disk=  1.02D+09
  mp2_memr nvloc                    14
  nvloc new                    14
   1 passes of   6:        2978296                      19752                    409044.

 Semi-direct pass number   1 of   1  for RHF alpha+beta  at        2.4s
  vrange nnbf                  1081
Node 0 wrote      0.7 Mb in      0.0 s     Agg I/O rate:  3064.4 Mb/s
 Done moints_semi at        2.5s
  mp2_eaf for ta                     -1
  mp2_eaf for tb                     -1
 Done maket at        2.5s
 Done pijab at        2.5s
 Done wijab at        2.5s
 Done lai at        2.5s
 Done nonsep at        2.7s
 Done multipass loop at        2.7s


          -------------------------------------------
          SCF energy                -106.975280221903
          Correlation energy          -0.270183596541
          Singlet pairs               -0.167441325926
          Triplet pairs               -0.102742270615
          Total MP2 energy          -107.245463818443
          -------------------------------------------



          ---------------------------------------------------
                    Spin Component Scaled (SCS) MP2
          Same spin pairs                     -0.068494847076
          Same spin scaling factor             0.333333333333
          Opposite spin pairs                 -0.201688749464
          Opposite spin scaling fact.          1.200000000000
          SCS-MP2 correlation energy          -0.264858115049
          Total SCS-MP2 energy              -107.240138336952
          ---------------------------------------------------

 Start laifock at        2.7s
 Done laifock at        2.7s
                                NWChem CPHF Module
                                ------------------


    scftype = RHF 
    nclosed =    6
      nopen =    0
  variables =      240
  tolerance =   1.0D-06
  max. iter =  100

  avail0,avail1,avail0-avail1                210022               210022                    0
  avail0,avail1,avail0-avail1                210022               210022                    0
  avail0,avail1,avail0-avail1                210022               210022                    0
  avail0,avail1,avail0-avail1                210022               210022                    0

 Integral file          = ./LiF.aoints.0
 Record size in doubles =  65536        No. of integs per rec  =  43688
 Max. records in memory =      9        Max. records in file   =  14777
 No. of bits per label  =      8        No. of bits per value  =     64


 #quartets = 2.216D+04 #integrals = 1.674D+05 #direct =  0.0% #cached =100.0%


File balance: exchanges=     0  moved=     0  time=   0.0

 SCF residual:    5.6581665477897321E-010

            ----- linear solve (tol: 1.0E-06 prod-acc: 9.5E-14) -----

               iter nbas    rnorm     rnorm-scal   ratio     time
               ---- ---- ----------- ----------- --------- -------
                  1    1  2.7640E-02  1.8824E-01    0.0000     2.8
                  2    2  7.9853E-03  5.4383E-02    0.2889     2.8
                  3    3  1.3070E-03  8.9016E-03    0.1637     2.8
                  4    4  2.7885E-04  1.8991E-03    0.2133     2.8
                  5    5  4.7969E-05  3.2669E-04    0.1720     2.8
                  6    6  9.3053E-06  6.3374E-05    0.1940     2.8
                  7    7  1.3879E-06  9.4523E-06    0.1492     2.8
                  8    8  2.1237E-07  1.4463E-06    0.1530     2.8
                  9    9  3.6863E-08  2.5105E-07    0.1736     2.9

 CPHF converged to   2.5D-07 in    9 iters


 Parallel integral file used       6 records with       0 large values

 Start make_tot_dens at        2.9s
 Done make_tot_dens at        2.9s
                Dipole Moments (a.u.)
                --------------
         Nuclear       SCF       SCF+MP2
       ----------- ----------- -----------
 X       0.000000   -0.000000   -0.000000
 Y       0.000000    0.000000    0.000000
 Z       0.450701   -2.623765   -2.539583


 MP2 RHF      natural orbital occupation numbers


              1      
    1    1.9996
    2    1.9976
    3    1.9876
    4    1.9731
    5    1.9720
    6    1.9720
    7    0.0242
    8    0.0242
    9    0.0220
   10    0.0106
   11    0.0030
   12    0.0029
   13    0.0029
   14    0.0027
   15    0.0027
   16    0.0019
   17    0.0006
   18    0.0005
   19    0.0005
   20    0.0004
   21    0.0004
   22    0.0004
   23    0.0003
   24    0.0001
   25    0.0001
   26    0.0001
   27    0.0001
   28    0.0001
   29    0.0000
   30    0.0000
   31    0.0000
   32    0.0000
   33    0.0000
   34    0.0000
   35    0.0000
   36    0.0000
   37    0.0000
   38    0.0000
   39    0.0000
   40    0.0000
   41    0.0000
   42    0.0000
   43   -0.0000
   44   -0.0004
   45   -0.0011
   46   -0.0011

  MP2 natural orbitals output to ./LiF.mp2nos



                         mp2 ENERGY GRADIENTS

    atom               coordinates                        gradient
                 x          y          z           x          y          z
   1 Li      0.000000   0.000000  -2.201059   -0.000000  -0.000000   0.004684
   2 F       0.000000   0.000000   0.783764    0.000000   0.000000  -0.004684

                 ----------------------------------------
                 |  Time  |  1-e(secs)   |  2-e(secs)   |
                 ----------------------------------------
                 |  CPU   |       0.00   |       0.16   |
                 ----------------------------------------
                 |  WALL  |       0.00   |       0.16   |
                 ----------------------------------------
 -----------------------
 Performance information
 -----------------------

 Timer overhead =  1.25D-07 seconds/call

               Nr. of calls         CPU time (s)                 Wall time (s)                GFlops
             ---------------    -------------------     ------------------------------   -------------------
Name         Min   Avg   Max    Min     Avg     Max     Min     Avg     Max   Mx/calls   Min     Max     Sum
mp2: moin     1     1     1   6.36E-2 6.36E-2 6.37E-2  6.36E-2 6.37E-2 6.37E-2 6.37E-2   0.0     0.0     0.0   
mp2: make     1     1     1   5.16E-3 8.17E-3 1.09E-2  5.16E-3 8.17E-3 1.09E-2 1.09E-2   0.0     0.0     0.0   
mp2: pija     1     1     1   3.63E-4 3.69E-4 3.81E-4  3.63E-4 3.69E-4 3.81E-4 3.81E-4   0.0     0.0     0.0   
mp2: wija     1     1     1   4.05E-4 4.07E-4 4.09E-4  4.05E-4 4.07E-4 4.09E-4 4.09E-4   0.0     0.0     0.0   
mp2: lai      1     1     1   2.04E-3 2.05E-3 2.05E-3  2.04E-3 2.05E-3 2.05E-3 2.05E-3   0.0     0.0     0.0   
mp2: back     1     1     1   2.44E-2 2.44E-2 2.44E-2  2.44E-2 2.44E-2 2.44E-2 2.44E-2   0.0     0.0     0.0   
mp2: nons     1     1     1   0.12    0.12    0.12     0.12    0.12    0.12    0.12      0.0     0.0     0.0   
mp2: laif     1     1     1   2.28E-2 2.28E-2 2.28E-2  2.28E-2 2.28E-2 2.28E-2 2.28E-2   0.0     0.0     0.0   
mp2: cphf     1     1     1   0.14    0.14    0.14     0.14    0.14    0.14    0.14      0.0     0.0     0.0   
mp2: wijf     1     1     1   2.23E-2 2.23E-2 2.23E-2  2.23E-2 2.23E-2 2.23E-2 2.23E-2   0.0     0.0     0.0   
mp2: sep      1     1     1   0.17    0.17    0.17     0.17    0.17    0.17    0.17      0.0     0.0     0.0   
mp2: tota     1     1     1   0.78    0.78    0.78     0.78    0.78    0.78    0.78      0.0     0.0     0.0   

 The average no. of pstat calls per process was 1.20D+01
 with a timing overhead of 1.50D-06s

  no constraints, skipping    0.0000000000000000     

  Step       Energy      Delta E   Gmax     Grms     Xrms     Xmax   Walltime
  ---- ---------------- -------- -------- -------- -------- -------- --------
@    1    -107.24546382 -2.8D-03  0.00468  0.00468  0.04337  0.07512      3.1
                                                                    



                                Z-matrix (autoz)
                                -------- 

 Units are Angstrom for bonds and degrees for angles

      Type          Name      I     J     K     L     M      Value     Gradient
      ----------- --------  ----- ----- ----- ----- ----- ---------- ----------
    1 Stretch                  1     2                       1.57950   -0.00468

  no constraints, skipping    0.0000000000000000     
  no constraints, skipping    0.0000000000000000     
  no constraints, skipping    0.0000000000000000     
                                 NWChem SCF Module
                                 -----------------


                                optimization of LiF



  ao basis        = "ao basis"
  functions       =    46
  atoms           =     2
  closed shells   =     6
  open shells     =     0
  charge          =   0.00
  wavefunction    = RHF 
  input vectors   = ./LiF.movecs
  output vectors  = ./LiF.movecs
  use symmetry    = F
  symmetry adapt  = F


 Summary of "ao basis" -> "ao basis" (cartesian)
 ------------------------------------------------------------------------------
       Tag                 Description            Shells   Functions and Types
[...]
                 x          y          z           x          y          z
   1 Li      0.000000   0.000000  -2.215899    0.000000  -0.000000  -0.000151
   2 F       0.000000   0.000000   0.799605   -0.000000   0.000000   0.000151

 atom:   2 xyz: 3(-) wall time:      18.5      date:  Sun Mar  3 17:26:45 2024

                                 NWChem SCF Module
                                 -----------------


                                optimization of LiF



  ao basis        = "ao basis"
  functions       =    46
  atoms           =     2
  closed shells   =     6
  open shells     =     0
  charge          =   0.00
  wavefunction    = RHF 
  input vectors   = ./LiF.movecs
  output vectors  = ./LiF.movecs
  use symmetry    = F
  symmetry adapt  = F


 Forming initial guess at      18.5s


 Starting SCF solution at      18.5s

  avail0,avail1,avail0-avail1                210020               210020                    0
  avail0,avail1,avail0-avail1                210020               210020                    0
  avail0,avail1,avail0-avail1                210020               210020                    0
  avail0,avail1,avail0-avail1                210020               210020                    0


       Final RHF  results 
       ------------------ 

         Total SCF energy =   -106.975180881230
      One-electron energy =   -169.112061857598
      Two-electron energy =     53.177211484383
 Nuclear repulsion energy =      8.959669491985

        Time for solution =      0.1s


                   NWChem MP2 Semi-direct Energy/Gradient Module
                   ---------------------------------------------


                                optimization of LiF


  Basis functions       =     46
  Molecular orbitals    =     46
  Frozen core           =      0
  Frozen virtuals       =      0
  Active alpha occupied =      6
  Active beta occupied  =      6
  Active alpha virtual  =     40
  Active beta virtual   =     40
  Use MO symmetry       = F
  Use skeleton AO sym   = F

  AO/Fock/Back tols     =   1.0D-11  1.0D-11  1.0D-11
  avail0,avail1,avail0-avail1                210020               210020                    0
  avail0,avail1,avail0-avail1                210020               210020                    0
  avail0,avail1,avail0-avail1                210020               210020                    0
  avail0,avail1,avail0-avail1                210020               210020                    0
  mp2_memr nvloc                    14
  nvloc new                    14
  vrange nnbf                  1081
  mp2_eaf for ta                     -1
  mp2_eaf for tb                     -1


          -------------------------------------------
          SCF energy                -106.975180881230
          Correlation energy          -0.270351457092
          Singlet pairs               -0.167537465839
          Triplet pairs               -0.102813991253
          Total MP2 energy          -107.245532338322
          -------------------------------------------



          ---------------------------------------------------
                    Spin Component Scaled (SCS) MP2
          Same spin pairs                     -0.068542660835
          Same spin scaling factor             0.333333333333
          Opposite spin pairs                 -0.201808796257
          Opposite spin scaling fact.          1.200000000000
          SCS-MP2 correlation energy          -0.265018109120
          Total SCS-MP2 energy              -107.240198990350
          ---------------------------------------------------

 Start laifock at       19.0s
 Done laifock at       19.0s
  avail0,avail1,avail0-avail1                210020               210020                    0
  avail0,avail1,avail0-avail1                210020               210020                    0
  avail0,avail1,avail0-avail1                210020               210020                    0
  avail0,avail1,avail0-avail1                210020               210020                    0
 SCF residual:    1.9304012910848159E-010

 CPHF converged to   2.6D-07 in    9 iters

 Start make_tot_dens at       19.1s
 Done make_tot_dens at       19.2s
                Dipole Moments (a.u.)
                --------------
         Nuclear       SCF       SCF+MP2
       ----------- ----------- -----------
 X       0.000000    0.000000    0.000000
 Y       0.000000   -0.000000   -0.000000
 Z       0.530745   -2.651056   -2.565634



                         mp2 ENERGY GRADIENTS

    atom               coordinates                        gradient
                 x          y          z           x          y          z
   1 Li      0.000000   0.000000  -2.215899   -0.000000   0.000000   0.000152
   2 F       0.000000   0.000000   0.797605    0.000000  -0.000000  -0.000152

  
  finite difference hessian delta =    1.0000000000000000E-003

              1        2        3        4        5        6      
    1    0.0000  -0.0000   0.0000  -0.0000  -0.0000   0.0000
    2   -0.0000   0.0000   0.0000   0.0000  -0.0000  -0.0000
    3    0.0000   0.0000   0.1516   0.0000  -0.0000  -0.1516
    4   -0.0000   0.0000   0.0000   0.0000  -0.0000   0.0000
    5   -0.0000  -0.0000  -0.0000  -0.0000   0.0000  -0.0000
    6    0.0000  -0.0000  -0.1516   0.0000  -0.0000   0.1516
  

  finite difference derivative dipole; delta =    1.0000000000000000E-003

  
  
 X vector of derivative dipole (au) [debye/angstrom]
 d_dipole_x/<atom=   1,x> =     0.8514     [    4.0894]
 d_dipole_x/<atom=   1,y> =    -0.0000     [   -0.0000]
 d_dipole_x/<atom=   1,z> =    -0.0000     [   -0.0000]
 d_dipole_x/<atom=   2,x> =    -0.8514     [   -4.0894]
 d_dipole_x/<atom=   2,y> =     0.0000     [    0.0000]
 d_dipole_x/<atom=   2,z> =    -0.0000     [   -0.0000]
  
 Y vector of derivative dipole (au) [debye/angstrom]
 d_dipole_y/<atom=   1,x> =    -0.0000     [   -0.0000]
 d_dipole_y/<atom=   1,y> =     0.8514     [    4.0894]
 d_dipole_y/<atom=   1,z> =    -0.0000     [   -0.0000]
 d_dipole_y/<atom=   2,x> =     0.0000     [    0.0000]
 d_dipole_y/<atom=   2,y> =    -0.8514     [   -4.0894]
 d_dipole_y/<atom=   2,z> =     0.0000     [    0.0000]
  
 Z vector of derivative dipole (au) [debye/angstrom]
 d_dipole_z/<atom=   1,x> =     0.0000     [    0.0000]
 d_dipole_z/<atom=   1,y> =     0.0000     [    0.0000]
 d_dipole_z/<atom=   1,z> =     0.9086     [    4.3642]
 d_dipole_z/<atom=   2,x> =    -0.0000     [   -0.0000]
 d_dipole_z/<atom=   2,y> =    -0.0000     [   -0.0000]
 d_dipole_z/<atom=   2,z> =    -0.9086     [   -4.3642]
  
  
  triangle hessian written to ./LiF.hess
  derivative dipole written to ./LiF.fd_ddipole

 Deleting state for mp2 with suffix hess
        ./LiF.movecs



  Vibrational analysis via the FX method 

  See chapter 2 in "Molecular Vibrations" by Wilson, Decius and Cross

  Vib: Default input used 

  Nuclear Hessian passed symmetry test 



 ---------------------------- Atom information ----------------------------
     atom    #        X              Y              Z            mass
 --------------------------------------------------------------------------
    Li       1  0.0000000D+00  0.0000000D+00 -2.2158993D+00  7.0160000D+00
    F        2  0.0000000D+00  0.0000000D+00  7.9860476D-01  1.8998400D+01
 --------------------------------------------------------------------------




          ----------------------------------------------------
          MASS-WEIGHTED NUCLEAR HESSIAN (Hartree/Bohr/Bohr/Kamu)
          ----------------------------------------------------


               1            2            3            4            5            6
   ----- ----- ----- ----- -----
    1    9.87801D-07
    2   -3.33322D-10  9.87805D-07
    3    2.99764D-11  5.06386D-10  2.16111D+01
    4   -6.00247D-07  4.20960D-10  2.89991D-11  3.64768D-07
    5   -2.47749D-10 -6.00242D-07 -4.18458D-10 -5.26296D-11  3.64765D-07
    6    2.43041D-12 -4.74353D-12 -1.31330D+01  1.06298D-10 -1.28029D-11  7.98086D+00



          -------------------------------------------------
          NORMAL MODE EIGENVECTORS IN CARTESIAN COORDINATES
          -------------------------------------------------
                 (Frequencies expressed in cm-1)

                    1           2           3           4           5           6
 
 Frequency         -0.01       -0.00        0.00        0.19        0.19      884.28
 
           1     0.00279    -0.14113    -0.13606    -0.22772     0.22856    -0.00000
           2    -0.00161    -0.13611     0.14109    -0.22854    -0.22774    -0.00000
           3    -0.19603    -0.00084    -0.00316    -0.00003    -0.00004    -0.32263
           4     0.00281    -0.14104    -0.13616     0.08406    -0.08444     0.00000
           5    -0.00172    -0.13618     0.14104     0.08445     0.08404     0.00000
           6    -0.19603    -0.00084    -0.00316    -0.00003    -0.00004     0.11915



 ----------------------------------------------------------------------------
 Normal Eigenvalue ||         Derivative Dipole Moments (debye/angs)
  Mode   [cm**-1]  ||      [d/dqX]             [d/dqY]           [d/dqZ]
 ------ ---------- || ------------------ ------------------ -----------------
    1       -0.014 ||       0.000              -0.000             0.000
    2       -0.001 ||       0.000              -0.000             0.000
    3        0.001 ||       0.000               0.000            -0.000
    4        0.189 ||      -1.275              -1.280             0.000
    5        0.189 ||       1.280              -1.275             0.000
    6      884.283 ||       0.000              -0.000            -1.928
 ----------------------------------------------------------------------------



  
  
 ----------------------------------------------------------------------------
 Normal Eigenvalue ||                 Infra Red Intensities
  Mode   [cm**-1]  || [atomic units] [(debye/angs)**2] [(KM/mol)] [arbitrary]
 ------ ---------- || -------------- ----------------- ---------- -----------
    1       -0.014 ||    0.000000           0.000         0.000       0.000
    2       -0.001 ||    0.000000           0.000         0.000       0.000
    3        0.001 ||    0.000000           0.000         0.000       0.000
    4        0.189 ||    0.141473           3.264       137.915      19.115
    5        0.189 ||    0.141473           3.264       137.915      19.115
    6      884.283 ||    0.161119           3.717       157.067      21.770
 ----------------------------------------------------------------------------





        Vibrational analysis via the FX method 
  --- with translations and rotations projected out ---
  --- via the Eckart algorithm                      ---
 Dependent rotation vector no.                    3
  found in ECKART; assuming linear geometry
 Projected Nuclear Hessian trans-rot subspace norm:1.9259D-34
                         (should be close to zero!) 

          --------------------------------------------------------
          MASS-WEIGHTED PROJECTED HESSIAN (Hartree/Bohr/Bohr/Kamu)
          --------------------------------------------------------


               1            2            3            4            5            6
   ----- ----- ----- ----- -----
    1    0.00000D+00
    2    0.00000D+00  0.00000D+00
    3   -2.15880D-26 -5.75680D-26  2.16111D+01
    4    0.00000D+00 -6.99676D-26  0.00000D+00  0.00000D+00
    5   -3.49838D-26  7.16468D-23  0.00000D+00  0.00000D+00  0.00000D+00
    6    1.42122D-26 -1.85851D-26 -1.31330D+01  0.00000D+00 -5.58062D-26  7.98086D+00

 center of mass
 --------------
 x =   0.00000000 y =   0.00000000 z =  -0.01439727

 moments of inertia (a.u.)
 ------------------
          46.561238909002           0.000000000000           0.000000000000
           0.000000000000          46.561238909002           0.000000000000
           0.000000000000           0.000000000000           0.000000000000

 Rotational Constants
 --------------------
 A=   0.000000 cm-1  (  0.000000 K)
 B=   1.292925 cm-1  (  1.860189 K)
 C=   1.292925 cm-1  (  1.860189 K)


 Temperature                      =   298.15K
 frequency scaling parameter      =   1.0000


 Linear Molecule                   

 Zero-Point correction to Energy  =    1.264 kcal/mol  (  0.002014 au)
 Thermal correction to Energy     =    2.780 kcal/mol  (  0.004430 au)
 Thermal correction to Enthalpy   =    3.372 kcal/mol  (  0.005374 au)

 Total Entropy                    =   47.908 cal/mol-K
   - Translational                =   35.688 cal/mol-K (mol. weight =  26.0144)
   - Rotational                   =   12.071 cal/mol-K (symmetry #  =        1)
   - Vibrational                  =    0.149 cal/mol-K

 Cv (constant volume heat capacity) =    5.487 cal/mol-K
   - Translational                  =    2.979 cal/mol-K
   - Rotational                     =    1.986 cal/mol-K
   - Vibrational                    =    0.522 cal/mol-K



          -------------------------------------------------
          NORMAL MODE EIGENVECTORS IN CARTESIAN COORDINATES
          -------------------------------------------------
             (Projected Frequencies expressed in cm-1)

                    1           2           3           4           5           6
 
 P.Frequency        0.00        0.00        0.00        0.00        0.00      884.28
 
           1     0.37753     0.00000     0.00000     0.00000     0.00000     0.00000
           2     0.00000     0.37753     0.00000     0.00000     0.00000     0.00000
           3     0.00000     0.00000     0.00000     0.00000    -0.19606    -0.32263
           4     0.00000     0.00000     0.22943     0.00000     0.00000     0.00000
           5     0.00000     0.00000     0.00000     0.22943     0.00000     0.00000
           6     0.00000     0.00000     0.00000     0.00000    -0.19606     0.11915



 ----------------------------------------------------------------------------
 Normal Eigenvalue ||    Projected Derivative Dipole Moments (debye/angs)
  Mode   [cm**-1]  ||      [d/dqX]             [d/dqY]           [d/dqZ]
 ------ ---------- || ------------------ ------------------ -----------------
    1        0.000 ||       1.544              -0.000             0.000
    2        0.000 ||      -0.000               1.544             0.000
    3        0.000 ||      -0.938               0.000            -0.000
    4        0.000 ||       0.000              -0.938            -0.000
    5        0.000 ||      -0.000               0.000             0.000
    6      884.283 ||       0.000               0.000            -1.928
 ----------------------------------------------------------------------------



  
  
 ----------------------------------------------------------------------------
 Normal Eigenvalue ||           Projected Infra Red Intensities
  Mode   [cm**-1]  || [atomic units] [(debye/angs)**2] [(KM/mol)] [arbitrary]
 ------ ---------- || -------------- ----------------- ---------- -----------
    1        0.000 ||    0.103318           2.384       100.719      13.960
    2        0.000 ||    0.103318           2.384       100.719      13.960
    3        0.000 ||    0.038155           0.880        37.195       5.155
    4        0.000 ||    0.038155           0.880        37.195       5.155
    5        0.000 ||    0.000000           0.000         0.000       0.000
    6      884.283 ||    0.161119           3.717       157.067      21.770
 ----------------------------------------------------------------------------



 vib:animation  T

 Task  times  cpu:       12.8s     wall:       12.8s


                                NWChem Input Module
                                -------------------


 Summary of allocated global arrays
-----------------------------------
  No active global arrays


MA_summarize_allocated_blocks: starting scan ...
MA_summarize_allocated_blocks: scan completed: 0 heap blocks, 0 stack blocks
MA usage statistics:

	allocation statistics:
					      heap	     stack
					      ----	     -----
	current number of blocks	         0	         0
	maximum number of blocks	        23	        39
	current total bytes		         0	         0
	maximum total bytes		   4735848	  32121576
	maximum total K-bytes		      4736	     32122
	maximum total M-bytes		         5	        33


                                     CITATION
                                     --------
                Please cite the following reference when publishing
                           results obtained with NWChem:

          E. Apra, E. J. Bylaska, W. A. de Jong, N. Govind, K. Kowalski,
       T. P. Straatsma, M. Valiev, H. J. J. van Dam, Y. Alexeev, J. Anchell,
       V. Anisimov, F. W. Aquino, R. Atta-Fynn, J. Autschbach, N. P. Bauman,
     J. C. Becca, D. E. Bernholdt, K. Bhaskaran-Nair, S. Bogatko, P. Borowski,
         J. Boschen, J. Brabec, A. Bruner, E. Cauet, Y. Chen, G. N. Chuev,
      C. J. Cramer, J. Daily, M. J. O. Deegan, T. H. Dunning Jr., M. Dupuis,
   K. G. Dyall, G. I. Fann, S. A. Fischer, A. Fonari, H. Fruchtl, L. Gagliardi,
      J. Garza, N. Gawande, S. Ghosh, K. Glaesemann, A. W. Gotz, J. Hammond,
       V. Helms, E. D. Hermes, K. Hirao, S. Hirata, M. Jacquelin, L. Jensen,
   B. G. Johnson, H. Jonsson, R. A. Kendall, M. Klemm, R. Kobayashi, V. Konkov,
      S. Krishnamoorthy, M. Krishnan, Z. Lin, R. D. Lins, R. J. Littlefield,
      A. J. Logsdail, K. Lopata, W. Ma, A. V. Marenich, J. Martin del Campo,
   D. Mejia-Rodriguez, J. E. Moore, J. M. Mullin, T. Nakajima, D. R. Nascimento,
    J. A. Nichols, P. J. Nichols, J. Nieplocha, A. Otero-de-la-Roza, B. Palmer,
    A. Panyala, T. Pirojsirikul, B. Peng, R. Peverati, J. Pittner, L. Pollack,
   R. M. Richard, P. Sadayappan, G. C. Schatz, W. A. Shelton, D. W. Silverstein,
   D. M. A. Smith, T. A. Soares, D. Song, M. Swart, H. L. Taylor, G. S. Thomas,
            V. Tipparaju, D. G. Truhlar, K. Tsemekhman, T. Van Voorhis,
      A. Vazquez-Mayagoitia, P. Verma, O. Villa, A. Vishnu, K. D. Vogiatzis,
        D. Wang, J. H. Weare, M. J. Williamson, T. L. Windus, K. Wolinski,
        A. T. Wong, Q. Wu, C. Yang, Q. Yu, M. Zacharias, Z. Zhang, Y. Zhao,
                                and R. J. Harrison
                        "NWChem: Past, present, and future
                         J. Chem. Phys. 152, 184102 (2020)
                               doi:10.1063/5.0004997

                                      AUTHORS
                                      -------
  E. Apra, E. J. Bylaska, N. Govind, K. Kowalski, M. Valiev, D. Mejia-Rodriguez,
       A. Kunitsa, N. P. Bauman, A. Panyala, W. A. de Jong, T. P. Straatsma,
   H. J. J. van Dam, D. Wang, T. L. Windus, J. Hammond, J. Autschbach, A. Woods,
    K. Bhaskaran-Nair, J. Brabec, K. Lopata, S. A. Fischer, S. Krishnamoorthy,
     M. Jacquelin, W. Ma, M. Klemm, O. Villa, Y. Chen, V. Anisimov, F. Aquino,
     S. Hirata, M. T. Hackler, E. Hermes, L. Jensen, J. E. Moore, J. C. Becca,
      V. Konjkov, T. Risthaus, M. Malagoli, A. Marenich, A. Otero-de-la-Roza,
        J. Mullin, P. Nichols, R. Peverati, J. Pittner, Y. Zhao, P.-D. Fan,
        A. Fonari, M. J. Williamson, R. J. Harrison, J. R. Rehr, M. Dupuis,
     D. Silverstein, D. M. A. Smith, J. Nieplocha, V. Tipparaju, M. Krishnan,
     B. E. Van Kuiken, A. Vazquez-Mayagoitia, M. Swart, Q. Wu, T. Van Voorhis,
     A. A. Auer, M. Nooijen, L. D. Crosby, E. Brown, G. Cisneros, G. I. Fann,
   H. Fruchtl, J. Garza, K. Hirao, R. A. Kendall, J. A. Nichols, K. Tsemekhman,
    K. Wolinski, J. Anchell, D. E. Bernholdt, P. Borowski, T. Clark, D. Clerc,
   H. Dachsel, M. J. O. Deegan, K. Dyall, D. Elwood, E. Glendening, M. Gutowski,
   A. C. Hess, J. Jaffe, B. G. Johnson, J. Ju, R. Kobayashi, R. Kutteh, Z. Lin,
   R. Littlefield, X. Long, B. Meng, T. Nakajima, S. Niu, L. Pollack, M. Rosing,
   K. Glaesemann, G. Sandrone, M. Stave, H. Taylor, G. Thomas, J. H. van Lenthe,
                               A. T. Wong, Z. Zhang.

 Total times  cpu:       21.0s     wall:       21.0s
