                    6
energy=    -68.098502
H          -0.576770    0.953900    0.569210
C          -0.251120    0.908410   -0.490350
Cl         -0.660770    2.435709   -1.302959
Br          0.640180   -2.374939    1.264279
H          -0.766630    0.068310   -0.999520
H           0.845940    0.748990   -0.533130
                    6
energy=    -68.103259
H          -0.574099    0.951839    0.562879
C          -0.243670    0.880588   -0.475542
Cl         -0.667833    2.462015   -1.316955
Br          0.639665   -2.373236    1.263348
H          -0.762654    0.072325   -0.995140
H           0.838869    0.748347   -0.531897
                    6
energy=    -68.105003
H          -0.571943    0.944720    0.566908
C          -0.237106    0.856692   -0.462790
Cl         -0.675570    2.490703   -1.332277
Br          0.637951   -2.365755    1.259484
H          -0.760709    0.065055   -0.991319
H           0.841090    0.741136   -0.528098
                    6
energy=    -68.105512
H          -0.571576    0.940012    0.570538
C          -0.234971    0.847632   -0.458018
Cl         -0.678503    2.501445   -1.337969
Br          0.627379   -2.329708    1.239885
H          -0.760259    0.059441   -0.989662
H           0.843355    0.736230   -0.525449
                    6
energy=    -68.105893
H          -0.571849    0.938104    0.571160
C          -0.234858    0.845494   -0.456962
Cl         -0.678901    2.502760   -1.338606
Br          0.615430   -2.290006    1.218172
H          -0.760011    0.057845   -0.988990
H           0.843240    0.734458   -0.524238
                    6
energy=    -68.106260
H          -0.572235    0.936481    0.571627
C          -0.234893    0.843850   -0.456172
Cl         -0.679116    2.503367   -1.338864
Br          0.603257   -2.249649    1.196090
H          -0.759855    0.056538   -0.988490
H           0.843038    0.732978   -0.523178
                    6
energy=    -68.106622
H          -0.572759    0.934613    0.572897
C          -0.234827    0.841810   -0.455168
Cl         -0.679656    2.505151   -1.339750
Br          0.590825   -2.208356    1.173503
H          -0.759941    0.054437   -0.988163
H           0.843586    0.731124   -0.521998
                    6
energy=    -68.106954
H          -0.573475    0.932631    0.575119
C          -0.234132    0.837473   -0.452937
Cl         -0.680945    2.509715   -1.342119
Br          0.578541   -2.167433    1.151124
H          -0.760390    0.051494   -0.988148
H           0.845076    0.728986   -0.520780
                    6
energy=    -68.107198
H          -0.574435    0.930483    0.578532
C          -0.232559    0.829899   -0.448981
Cl         -0.683311    2.518291   -1.346622
Br          0.566361   -2.126752    1.128883
H          -0.761293    0.047487   -0.988520
H           0.847744    0.726500   -0.519510
                    6
energy=    -68.107226
H          -0.575578    0.928364    0.582805
C          -0.230061    0.819019   -0.443263
Cl         -0.686704    2.530729   -1.353179
Br          0.555088   -2.089038    1.108286
H          -0.762579    0.042806   -0.989271
H           0.851332    0.723921   -0.518312
                    6
energy=    -68.106936
H          -0.576845    0.926374    0.587596
C          -0.226652    0.804895   -0.435822
Cl         -0.691010    2.546628   -1.361585
Br          0.544782   -2.054581    1.089509
H          -0.764141    0.037799   -0.990341
H           0.855521    0.721414   -0.517239
                    6
energy=    -68.106299
H          -0.578107    0.924533    0.592492
C          -0.222537    0.788272   -0.427039
Cl         -0.695907    2.564794   -1.371207
Br          0.535522   -2.023471    1.072548
H          -0.765763    0.032762   -0.991483
H           0.859863    0.718948   -0.516226
                    6
energy=    -68.105353
H          -0.579326    0.922889    0.597214
C          -0.217893    0.769801   -0.417268
Cl         -0.701156    2.584313   -1.381549
Br          0.527203   -1.995407    1.057248
H          -0.767364    0.027964   -0.992644
H           0.864100    0.716663   -0.515315
                    6
energy=    -68.104171
H          -0.580495    0.921472    0.601645
C          -0.212851    0.749963   -0.406766
Cl         -0.706587    2.604532   -1.392263
Br          0.519688   -1.969977    1.043383
H          -0.768912    0.023522   -0.993802
H           0.868125    0.714623   -0.514530
                    6
energy=    -68.102837
H          -0.581592    0.920267    0.605691
C          -0.207527    0.729156   -0.395745
Cl         -0.712088    2.625042   -1.403134
Br          0.512824   -1.946693    1.030691
H          -0.770362    0.019507   -0.994914
H           0.871826    0.712843   -0.513860
                    6
energy=    -68.101424
H          -0.582657    0.919284    0.609438
C          -0.202007    0.707688   -0.384372
Cl         -0.717611    2.645649   -1.414065
Br          0.506489   -1.925198    1.018993
H          -0.771768    0.015856   -0.996046
H           0.875298    0.711332   -0.513323
                    6
energy=    -68.100009
H          -0.583515    0.918415    0.612412
C          -0.196281    0.685509   -0.372616
Cl         -0.723065    2.666011   -1.424863
Br          0.500556   -1.905013    1.008007
H          -0.772858    0.012906   -0.996899
H           0.878016    0.710064   -0.512842
                    6
energy=    -68.098638
H          -0.584323    0.917694    0.615087
C          -0.190441    0.662957   -0.360661
Cl         -0.728462    2.686186   -1.435564
Br          0.494940   -1.885893    0.997611
H          -0.773871    0.010279   -0.997716
H           0.880474    0.708987   -0.512446
                    6
energy=    -68.097359
H          -0.585017    0.917065    0.617300
C          -0.184506    0.640079   -0.348533
Cl         -0.733793    2.706129   -1.446143
Br          0.489566   -1.867572    0.987653
H          -0.774707    0.008084   -0.998384
H           0.882485    0.708072   -0.512094
                    6
energy=    -68.096205
H          -0.585588    0.916486    0.619072
C          -0.178494    0.616934   -0.336259
Cl         -0.739068    2.725882   -1.456623
Br          0.484388   -1.849900    0.978050
H          -0.775358    0.006280   -0.998885
H           0.884061    0.707276   -0.511764
                    6
energy=    -68.095203
H          -0.586065    0.915991    0.620458
C          -0.172390    0.593466   -0.323811
Cl         -0.744267    2.745357   -1.466956
Br          0.479382   -1.832782    0.968751
H          -0.775868    0.004844   -0.999271
H           0.885265    0.706626   -0.511478
                    6
energy=    -68.094376
H          -0.586342    0.915333    0.621404
C          -0.166333    0.570155   -0.311449
Cl         -0.749464    2.764822   -1.477285
Br          0.474406   -1.815788    0.959518
H          -0.776091    0.003677   -0.999331
H           0.885972    0.705917   -0.511100
                    6
energy=    -68.093737
H          -0.586442    0.914511    0.621971
C          -0.160310    0.546964   -0.299154
Cl         -0.754673    2.784333   -1.487637
Br          0.469449   -1.798871    0.950324
H          -0.776054    0.002731   -0.999099
H           0.886241    0.705138   -0.510623
                    6
energy=    -68.093284
H          -0.586414    0.913688    0.622135
C          -0.154192    0.523446   -0.286684
Cl         -0.759831    2.803659   -1.497888
Br          0.464574   -1.782209    0.941270
H          -0.775828    0.002109   -0.998682
H           0.886102    0.704435   -0.510143
                    6
energy=    -68.093012
H          -0.586192    0.912607    0.621973
C          -0.148165    0.500224   -0.274372
Cl         -0.765072    2.823286   -1.508301
Br          0.459649   -1.765413    0.932138
H          -0.775324    0.001612   -0.997928
H           0.885555    0.703562   -0.509515
                    6
energy=    -68.092916
H          -0.585785    0.911381    0.621391
C          -0.142114    0.476886   -0.262003
Cl         -0.770327    2.842993   -1.518752
Br          0.454731   -1.748635    0.923023
H          -0.774559    0.001358   -0.996877
H           0.884549    0.702638   -0.508793
                    6
energy=    -68.092968
H          -0.585216    0.909837    0.620657
C          -0.136187    0.453999   -0.249872
Cl         -0.775763    2.863348   -1.529549
Br          0.449745   -1.731689    0.913803
H          -0.773561    0.001062   -0.995519
H           0.883283    0.701452   -0.507900
                    6
energy=    -68.093148
H          -0.584456    0.907974    0.619685
C          -0.130384    0.431534   -0.237973
Cl         -0.781375    2.884328   -1.540658
Br          0.444710   -1.714624    0.904508
H          -0.772294    0.000764   -0.993814
H           0.881692    0.700004   -0.506822
                    6
energy=    -68.093424
H          -0.583525    0.905789    0.618519
C          -0.124720    0.409535   -0.226322
Cl         -0.787183    2.906059   -1.552179
Br          0.439610   -1.697415    0.895127
H          -0.770785    0.000456   -0.991786
H           0.879798    0.698314   -0.505567
                    6
energy=    -68.093757
H          -0.582410    0.903237    0.617164
C          -0.119235    0.388143   -0.215000
Cl         -0.793255    2.928774   -1.564225
Br          0.434450   -1.680113    0.885684
H          -0.769017    0.000104   -0.989405
H           0.877601    0.696335   -0.504110
                    6
energy=    -68.094104
H          -0.581139    0.900337    0.615676
C          -0.113964    0.367471   -0.204067
Cl         -0.799654    2.952711   -1.576919
Br          0.429255   -1.662837    0.876239
H          -0.767023   -0.000337   -0.986711
H           0.875162    0.694062   -0.502457
                    6
energy=    -68.094418
H          -0.579730    0.897084    0.614087
C          -0.108956    0.347687   -0.193613
Cl         -0.806446    2.978135   -1.590392
Br          0.424056   -1.645741    0.866870
H          -0.764825   -0.000900   -0.983726
H           0.872515    0.691496   -0.500611
                    6
energy=    -68.094650
H          -0.578215    0.893509    0.612457
C          -0.104277    0.328995   -0.183742
Cl         -0.813715    3.005335   -1.604810
Br          0.418899   -1.629046    0.857687
H          -0.762461   -0.001609   -0.980506
H           0.869728    0.688651   -0.498577
                    6
energy=    -68.094752
H          -0.576647    0.889659    0.610866
C          -0.099993    0.311681   -0.174616
Cl         -0.821549    3.034654   -1.620363
Br          0.413867   -1.613095    0.848869
H          -0.760013   -0.002487   -0.977122
H           0.866879    0.685558   -0.496385
                    6
energy=    -68.094688
H          -0.575077    0.885604    0.609384
C          -0.096198    0.295994   -0.166367
Cl         -0.830038    3.066415   -1.637228
Br          0.409048   -1.598261    0.840609
H          -0.757535   -0.003537   -0.973683
H           0.864043    0.682297   -0.494072
                    6
energy=    -68.094435
H          -0.573576    0.881391    0.608088
C          -0.092925    0.282107   -0.159089
Cl         -0.839412    3.101433   -1.655790
Br          0.404520   -1.584940    0.833101
H          -0.755110   -0.004820   -0.970261
H           0.861353    0.678844   -0.491668
                    6
energy=    -68.094011
H          -0.572318    0.877343    0.607162
C          -0.090438    0.270998   -0.153303
Cl         -0.849395    3.138723   -1.675541
Br          0.400609   -1.574273    0.826959
H          -0.752979   -0.006314   -0.967172
H           0.859090    0.675453   -0.489334
                    6
energy=    -68.093452
H          -0.571344    0.873495    0.606657
C          -0.088580    0.262035   -0.148677
Cl         -0.860210    3.179132   -1.696918
Br          0.397219   -1.565994    0.822031
H          -0.751185   -0.008047   -0.964479
H           0.857315    0.672141   -0.487086
                    6
energy=    -68.092821
H          -0.570763    0.870122    0.606597
C          -0.087408    0.255501   -0.145340
Cl         -0.871611    3.221740   -1.719534
Br          0.394445   -1.560455    0.818517
H          -0.749882   -0.009791   -0.962399
H           0.856068    0.669231   -0.485092
                    6
energy=    -68.092141
H          -0.570550    0.867125    0.606985
C          -0.086891    0.251236   -0.143212
Cl         -0.883705    3.266897   -1.743499
Br          0.392233   -1.557475    0.816306
H          -0.748995   -0.011694   -0.960854
H           0.855395    0.666541   -0.483268
                    6
energy=    -68.091429
H          -0.570678    0.864544    0.607793
C          -0.086509    0.247365   -0.141299
Cl         -0.896302    3.313962   -1.768467
Br          0.390288   -1.555759    0.814740
H          -0.748531   -0.013755   -0.959815
H           0.855296    0.664075   -0.481632
                    6
energy=    -68.090682
H          -0.570515    0.861274    0.608765
C          -0.085832    0.242512   -0.138867
Cl         -0.909019    3.361557   -1.793691
Br          0.388204   -1.553431    0.812862
H          -0.747803   -0.016206   -0.958370
H           0.855189    0.660955   -0.479639
                    6
energy=    -68.089747
H          -0.568884    0.854971    0.609805
C          -0.083422    0.231459   -0.133138
Cl         -0.921960    3.410084   -1.819402
Br          0.384869   -1.545323    0.808020
H          -0.745454   -0.020422   -0.954502
H           0.854329    0.655071   -0.476039
                    6
energy=    -68.087788
H          -0.562859    0.842799    0.611476
C          -0.073481    0.197240   -0.114798
Cl         -0.916225    3.389206   -1.808356
Br          0.378370   -1.512306    0.791501
H          -0.739360   -0.028860   -0.944977
H           0.852909    0.643790   -0.469923
                    6
energy=    -68.083999
H          -0.568730    0.852490    0.617540
C          -0.067110    0.173290   -0.102070
Cl         -0.911370    3.370918   -1.798669
Br          0.372570   -1.490049    0.779750
H          -0.747060   -0.028420   -0.955160
H           0.861900    0.651340   -0.475180
