 argument  1 = input.nw
  NWChem w/ OpenMP: maximum threads =    1



============================== echo of input deck ==============================
echo
start adamant
geometry  units angstroms noautosym  noautoz
C         -0.19305        1.82219       -0.88212
C          0.69674        0.94007        0.00000
C         -0.19305        0.05795        0.88212
H          1.35905        0.32766       -0.61241
H          1.35905        1.55248        0.61241
C         -1.07517        0.94007        1.77192
C         -1.95729        1.82219        0.88212
H         -1.68758        0.32766        2.43422
H         -0.46276        1.55248        2.43422
C         -1.07517        2.71199        0.00000
H         -1.68758        3.37430       -0.61241
H         -0.46276        3.37430        0.61241
C         -1.07517        0.94007       -1.77192
H          0.43561        2.45085       -1.51078
C         -1.07517       -0.83185        0.00000
H          0.43561       -0.57071        1.51078
C         -1.95729        0.05795       -0.88212
H         -0.46276       -1.49415       -0.61241
H         -1.68758       -1.49415        0.61241
H         -2.58595       -0.57071       -1.51078
C         -2.84709        0.94007        0.00000
H         -1.68758        1.55248       -2.43422
H         -0.46276        0.32766       -2.43422
H         -3.50940        1.55248       -0.61241
H         -2.58595        2.45085        1.51078
H         -3.50940        0.32766        0.61241
 symmetry c1
end

basis
 *  library 6-31G
end

dft
 xc b3lyp
 mult 1
 cs00
end

tddft
 cis
 nroots 40
 singlet
 notriplet
 civecs
end

task tddft energy


dplot
 civecs adamant.civecs_singlet
 root 1
 LimitXYZ
  -5.0 5.0 50
  -5.0 5.0 50
  -5.0 5.0 50
   gaussian
   output root-1.cube
end
task dplot

================================================================================


                                         
                                         


             Northwest Computational Chemistry Package (NWChem) 7.2.1
             --------------------------------------------------------


                    Environmental Molecular Sciences Laboratory
                       Pacific Northwest National Laboratory
                                Richland, WA 99352

                              Copyright (c) 1994-2022
                       Pacific Northwest National Laboratory
                            Battelle Memorial Institute

             NWChem is an open-source computational chemistry package
                        distributed under the terms of the
                      Educational Community License (ECL) 2.0
             A copy of the license is included with this distribution
                              in the LICENSE.TXT file

                                  ACKNOWLEDGMENT
                                  --------------

            This software and its documentation were developed at the
            EMSL at Pacific Northwest National Laboratory, a multiprogram
            national laboratory, operated for the U.S. Department of Energy
            by Battelle under Contract Number DE-AC05-76RL01830. Support
            for this work was provided by the Department of Energy Office
            of Biological and Environmental Research, Office of Basic
            Energy Sciences, and the Office of Advanced Scientific Computing.


           Job information
           ---------------

    hostname        = cpn-f13-37.core.ccr.buffalo.edu
    program         = nwchem
    date            = Sun Mar 24 11:25:08 2024

    compiled        = Wed_Jan_17_15:19:23_2024
    source          = /projects/academic/cyberwksp21/SOFTWARE_NEW_ENV/nwchem
    nwchem branch   = 7.2.1
    nwchem revision = v7.2.0-beta1-968-g8bfd0073a6
    ga revision     = 5.8.0
    use scalapack   = T
    input           = input.nw
    prefix          = adamant.
    data base       = ./adamant.db
    status          = startup
    nproc           =       11
    time left       =     -1s



           Memory information
           ------------------

    heap     =     26214396 doubles =      200.0 Mbytes
    stack    =     26214401 doubles =      200.0 Mbytes
    global   =     52428800 doubles =      400.0 Mbytes (distinct from heap & stack)
    total    =    104857597 doubles =      800.0 Mbytes
    verify   = yes
    hardfail = no 


           Directory information
           ---------------------

  0 permanent = .
  0 scratch   = .




                                NWChem Input Module
                                -------------------



 Scaling coordinates for geometry "geometry" by  1.889725989
 (inverse scale =  0.529177249)



                             Geometry "geometry" -> ""
                             -------------------------

 Output coordinates in angstroms (scale by  1.889725989 to convert to a.u.)

  No.       Tag          Charge          X              Y              Z
 ---- ---------------- ---------- -------------- -------------- --------------
    1 C                    6.0000     0.88212105     0.88211974    -0.88212000
    2 C                    6.0000     1.77191105    -0.00000026    -0.00000000
    3 C                    6.0000     0.88212105    -0.88212026     0.88212000
    4 H                    1.0000     2.43422105    -0.61241026    -0.61241000
    5 H                    1.0000     2.43422105     0.61240974     0.61241000
    6 C                    6.0000     0.00000105    -0.00000026     1.77192000
    7 C                    6.0000    -0.88211895     0.88211974     0.88212000
    8 H                    1.0000    -0.61240895    -0.61241026     2.43422000
    9 H                    1.0000     0.61241105     0.61240974     2.43422000
   10 C                    6.0000     0.00000105     1.77191974    -0.00000000
   11 H                    1.0000    -0.61240895     2.43422974    -0.61241000
   12 H                    1.0000     0.61241105     2.43422974     0.61241000
   13 C                    6.0000     0.00000105    -0.00000026    -1.77192000
   14 H                    1.0000     1.51078105     1.51077974    -1.51078000
   15 C                    6.0000     0.00000105    -1.77192026    -0.00000000
   16 H                    1.0000     1.51078105    -1.51078026     1.51078000
   17 C                    6.0000    -0.88211895    -0.88212026    -0.88212000
   18 H                    1.0000     0.61241105    -2.43422026    -0.61241000
   19 H                    1.0000    -0.61240895    -2.43422026     0.61241000
   20 H                    1.0000    -1.51077895    -1.51078026    -1.51078000
   21 C                    6.0000    -1.77191895    -0.00000026    -0.00000000
   22 H                    1.0000    -0.61240895     0.61240974    -2.43422000
   23 H                    1.0000     0.61241105    -0.61241026    -2.43422000
   24 H                    1.0000    -2.43422895     0.61240974    -0.61241000
   25 H                    1.0000    -1.51077895     1.51077974     1.51078000
   26 H                    1.0000    -2.43422895    -0.61241026     0.61241000

      Atomic Mass 
      ----------- 

      C                 12.000000
      H                  1.007825


 Effective nuclear repulsion energy (a.u.)     599.1399474866

            Nuclear Dipole moment (a.u.) 
            ----------------------------
        X                 Y               Z
 ---------------- ---------------- ----------------
     0.0000000000    -0.0000000000     0.0000000000


            XYZ format geometry
            -------------------
    26
 geometry
 C                     0.88212105     0.88211974    -0.88212000
 C                     1.77191105    -0.00000026    -0.00000000
 C                     0.88212105    -0.88212026     0.88212000
 H                     2.43422105    -0.61241026    -0.61241000
 H                     2.43422105     0.61240974     0.61241000
 C                     0.00000105    -0.00000026     1.77192000
 C                    -0.88211895     0.88211974     0.88212000
 H                    -0.61240895    -0.61241026     2.43422000
 H                     0.61241105     0.61240974     2.43422000
 C                     0.00000105     1.77191974    -0.00000000
 H                    -0.61240895     2.43422974    -0.61241000
 H                     0.61241105     2.43422974     0.61241000
 C                     0.00000105    -0.00000026    -1.77192000
 H                     1.51078105     1.51077974    -1.51078000
 C                     0.00000105    -1.77192026    -0.00000000
 H                     1.51078105    -1.51078026     1.51078000
 C                    -0.88211895    -0.88212026    -0.88212000
 H                     0.61241105    -2.43422026    -0.61241000
 H                    -0.61240895    -2.43422026     0.61241000
 H                    -1.51077895    -1.51078026    -1.51078000
 C                    -1.77191895    -0.00000026    -0.00000000
 H                    -0.61240895     0.61240974    -2.43422000
 H                     0.61241105    -0.61241026    -2.43422000
 H                    -2.43422895     0.61240974    -0.61241000
 H                    -1.51077895     1.51077974     1.51078000
 H                    -2.43422895    -0.61241026     0.61241000

 ==============================================================================
                                internuclear distances
 ------------------------------------------------------------------------------
       center one      |      center two      | atomic units |  angstroms
 ------------------------------------------------------------------------------
    2 C                |   1 C                |     2.89566  |     1.53232
    3 C                |   2 C                |     2.89566  |     1.53232
    4 H                |   2 C                |     2.06036  |     1.09030
    5 H                |   2 C                |     2.06036  |     1.09030
    6 C                |   3 C                |     2.89567  |     1.53232
    7 C                |   6 C                |     2.89567  |     1.53232
    8 H                |   6 C                |     2.06035  |     1.09029
    9 H                |   6 C                |     2.06035  |     1.09029
   10 C                |   1 C                |     2.89567  |     1.53232
   10 C                |   7 C                |     2.89567  |     1.53232
   11 H                |  10 C                |     2.06036  |     1.09030
   12 H                |  10 C                |     2.06036  |     1.09030
   13 C                |   1 C                |     2.89567  |     1.53232
   14 H                |   1 C                |     2.05767  |     1.08887
   15 C                |   3 C                |     2.89567  |     1.53232
   16 H                |   3 C                |     2.05767  |     1.08887
   17 C                |  13 C                |     2.89567  |     1.53232
   17 C                |  15 C                |     2.89567  |     1.53232
   18 H                |  15 C                |     2.06035  |     1.09029
   19 H                |  15 C                |     2.06035  |     1.09029
   20 H                |  17 C                |     2.05767  |     1.08887
   21 C                |   7 C                |     2.89567  |     1.53232
   21 C                |  17 C                |     2.89567  |     1.53232
   22 H                |  13 C                |     2.06035  |     1.09029
   23 H                |  13 C                |     2.06035  |     1.09029
   24 H                |  21 C                |     2.06036  |     1.09030
   25 H                |   7 C                |     2.05767  |     1.08887
   26 H                |  21 C                |     2.06036  |     1.09030
 ------------------------------------------------------------------------------
                         number of included internuclear distances:         28
 ==============================================================================



 ==============================================================================
                                 internuclear angles
 ------------------------------------------------------------------------------
        center 1       |       center 2       |       center 3       |  degrees
 ------------------------------------------------------------------------------
    2 C                |   1 C                |  10 C                |   109.70
    2 C                |   1 C                |  13 C                |   109.70
    2 C                |   1 C                |  14 H                |   109.24
   10 C                |   1 C                |  13 C                |   109.70
   10 C                |   1 C                |  14 H                |   109.24
   13 C                |   1 C                |  14 H                |   109.24
    1 C                |   2 C                |   3 C                |   109.00
    1 C                |   2 C                |   4 H                |   110.66
    1 C                |   2 C                |   5 H                |   110.66
    3 C                |   2 C                |   4 H                |   110.66
    3 C                |   2 C                |   5 H                |   110.66
    4 H                |   2 C                |   5 H                |   105.19
    2 C                |   3 C                |   6 C                |   109.70
    2 C                |   3 C                |  15 C                |   109.70
    2 C                |   3 C                |  16 H                |   109.24
    6 C                |   3 C                |  15 C                |   109.70
    6 C                |   3 C                |  16 H                |   109.24
   15 C                |   3 C                |  16 H                |   109.24
    3 C                |   6 C                |   7 C                |   109.00
    3 C                |   6 C                |   8 H                |   110.65
    3 C                |   6 C                |   9 H                |   110.65
    7 C                |   6 C                |   8 H                |   110.65
    7 C                |   6 C                |   9 H                |   110.65
    8 H                |   6 C                |   9 H                |   105.19
    6 C                |   7 C                |  10 C                |   109.70
    6 C                |   7 C                |  21 C                |   109.70
    6 C                |   7 C                |  25 H                |   109.24
   10 C                |   7 C                |  21 C                |   109.70
   10 C                |   7 C                |  25 H                |   109.24
   21 C                |   7 C                |  25 H                |   109.24
    1 C                |  10 C                |   7 C                |   109.00
    1 C                |  10 C                |  11 H                |   110.66
    1 C                |  10 C                |  12 H                |   110.66
    7 C                |  10 C                |  11 H                |   110.66
    7 C                |  10 C                |  12 H                |   110.66
   11 H                |  10 C                |  12 H                |   105.19
    1 C                |  13 C                |  17 C                |   109.00
    1 C                |  13 C                |  22 H                |   110.65
    1 C                |  13 C                |  23 H                |   110.65
   17 C                |  13 C                |  22 H                |   110.65
   17 C                |  13 C                |  23 H                |   110.65
   22 H                |  13 C                |  23 H                |   105.19
    3 C                |  15 C                |  17 C                |   109.00
    3 C                |  15 C                |  18 H                |   110.65
    3 C                |  15 C                |  19 H                |   110.65
   17 C                |  15 C                |  18 H                |   110.65
   17 C                |  15 C                |  19 H                |   110.65
   18 H                |  15 C                |  19 H                |   105.19
   13 C                |  17 C                |  15 C                |   109.70
   13 C                |  17 C                |  20 H                |   109.24
   13 C                |  17 C                |  21 C                |   109.70
   15 C                |  17 C                |  20 H                |   109.24
   15 C                |  17 C                |  21 C                |   109.70
   20 H                |  17 C                |  21 C                |   109.24
    7 C                |  21 C                |  17 C                |   109.00
    7 C                |  21 C                |  24 H                |   110.66
    7 C                |  21 C                |  26 H                |   110.66
   17 C                |  21 C                |  24 H                |   110.66
   17 C                |  21 C                |  26 H                |   110.66
   24 H                |  21 C                |  26 H                |   105.19
 ------------------------------------------------------------------------------
                            number of included internuclear angles:         60
 ==============================================================================





 Summary of "ao basis" -> "" (cartesian)
 ------------------------------------------------------------------------------
       Tag                 Description            Shells   Functions and Types
 ---------------- ------------------------------  ------  ---------------------
 *                           6-31G                    on all atoms 


  shift for CS00 correction not found; Zhan-Nichols-Dixon shift (B3LYP) will be used.
 tddft_input: filename not found; default name will be used

                                 NWChem DFT Module
                                 -----------------


                      Basis "ao basis" -> "ao basis" (cartesian)
                      -----
  C (Carbon)
  ----------
            Exponent  Coefficients 
       -------------- ---------------------------------------------------------
  1 S  3.04752490E+03  0.001835
  1 S  4.57369510E+02  0.014037
  1 S  1.03948690E+02  0.068843
  1 S  2.92101550E+01  0.232184
  1 S  9.28666300E+00  0.467941
  1 S  3.16392700E+00  0.362312

  2 S  7.86827240E+00 -0.119332
  2 S  1.88128850E+00 -0.160854
  2 S  5.44249300E-01  1.143456

  3 P  7.86827240E+00  0.068999
  3 P  1.88128850E+00  0.316424
  3 P  5.44249300E-01  0.744308

  4 S  1.68714400E-01  1.000000

  5 P  1.68714400E-01  1.000000

  H (Hydrogen)
  ------------
            Exponent  Coefficients 
       -------------- ---------------------------------------------------------
  1 S  1.87311370E+01  0.033495
  1 S  2.82539370E+00  0.234727
  1 S  6.40121700E-01  0.813757

  2 S  1.61277800E-01  1.000000



 Summary of "ao basis" -> "ao basis" (cartesian)
 ------------------------------------------------------------------------------
       Tag                 Description            Shells   Functions and Types
 ---------------- ------------------------------  ------  ---------------------
 C                           6-31G                   5        9   3s2p
 H                           6-31G                   2        2   2s




 Summary of "ao basis" -> "ao basis" (cartesian)
 ------------------------------------------------------------------------------
       Tag                 Description            Shells   Functions and Types
 ---------------- ------------------------------  ------  ---------------------
 C                           6-31G                   5        9   3s2p
 H                           6-31G                   2        2   2s


  Caching 1-el integrals 

            General Information
            -------------------
          SCF calculation type: DFT
          Wavefunction type:  closed shell.
          No. of atoms     :    26
          No. of electrons :    76
           Alpha electrons :    38
            Beta electrons :    38
          Charge           :     0
          Spin multiplicity:     1
          Use of symmetry is: off; symmetry adaption is: off
          Maximum number of iterations:  50
          AO basis - number of functions:   122
                     number of shells:    82
          Convergence on energy requested:  1.00D-06
          Convergence on density requested:  1.00D-05
          Convergence on gradient requested:  5.00D-04

              XC Information
              --------------
                         B3LYP Method XC Potential
                     Hartree-Fock (Exact) Exchange  0.200          
                        Slater Exchange Functional  0.800 local    
                    Becke 1988 Exchange Functional  0.720 non-local
              Lee-Yang-Parr Correlation Functional  0.810          
                  VWN I RPA Correlation Functional  0.190 local    

            CS with a Zhan-Nichols-Dixon shift        

             Grid Information
             ----------------
          Grid used for XC integration:  medium    
          Radial quadrature: Mura-Knowles        
          Angular quadrature: Lebedev. 
          Tag              B.-S. Rad. Rad. Pts. Rad. Cut. Ang. Pts.
          ---              ---------- --------- --------- ---------
          C                   0.70       49          11.0       434
          H                   0.35       45          12.0       434
          Grid pruning is: on 
          Number of quadrature shells:  1210
          Spatial weights used:  Erf1

          Convergence Information
          -----------------------
          Convergence aids based upon iterative change in 
          total energy or number of iterations. 
          Levelshifting, if invoked, occurs when the 
          HOMO/LUMO gap drops below (HL_TOL):  1.00D-02
          DIIS, if invoked, will attempt to extrapolate 
          using up to (NFOCK): 10 stored Fock matrices.

                    Damping( 0%)  Levelshifting(0.5)       DIIS
                  --------------- ------------------- ---------------
          dE  on:    start            ASAP                start   
          dE off:    2 iters         50 iters            50 iters 


      Screening Tolerance Information
      -------------------------------
          Density screening/tol_rho:  1.00D-10
          AO Gaussian exp screening on grid/accAOfunc:  14
          CD Gaussian exp screening on grid/accCDfunc:  20
          XC Gaussian exp screening on grid/accXCfunc:  20
          Schwarz screening/accCoul:  1.00D-08


      Superposition of Atomic Density Guess
      -------------------------------------

 Sum of atomic energies:        -384.57426211

      Non-variational initial energy
      ------------------------------

 Total energy =    -392.757521
 1-e energy   =   -1704.959901
 2-e energy   =     713.062433
 HOMO         =      -0.302107
 LUMO         =       0.105158

   Time after variat. SCF:      1.0
   Time prior to 1st pass:      1.0
  avail0,avail1,avail0-avail1                197477               197477                    0
  avail0,avail1,avail0-avail1                197477               197477                    0
  avail0,avail1,avail0-avail1                197477               197477                    0
  avail0,avail1,avail0-avail1                197477               197477                    0

 Integral file          = ./adamant.aoints.00
 Record size in doubles =  65536        No. of integs per rec  =  43688
 Max. records in memory =     82        Max. records in file   =    280
 No. of bits per label  =      8        No. of bits per value  =     64


 #quartets = 4.796D+06 #integrals = 2.436D+07 #direct =  0.0% #cached =100.0%


File balance: exchanges=    10  moved=    13  time=   0.0

  avail0,avail1,avail0-avail1                197477               197477                    0
  avail0,avail1,avail0-avail1                197477               197477                    0
  avail0,avail1,avail0-avail1                197477               197477                    0
  avail0,avail1,avail0-avail1                197477               197477                    0

 Grid_pts file          = ./adamant.gridpts.00
 Record size in doubles =  12289        No. of grid_pts per rec  =   3070
 Max. records in memory =     19        Max. recs in file   =      1500

 Grid integrated density:      76.002712832265
 Requested integration accuracy:   0.10E-05

           Memory utilization after 1st SCF pass: 
           Heap Space remaining (MW):       20.60            20600548
          Stack Space remaining (MW):       26.21            26212828

   convergence    iter        energy       DeltaE   RMS-Dens  Diis-err    time
 ---------------- ----- ----------------- --------- --------- ---------  ------
 d= 0,ls=0.0,diis     1   -390.5252148366 -9.90D+02  8.21D-03  7.10D-01     2.1
 Grid integrated density:      76.002243537249
 Requested integration accuracy:   0.10E-05
 d= 0,ls=0.0,diis     2   -390.6206946760 -9.55D-02  1.91D-03  1.56D-02     2.4
 Grid integrated density:      76.002335557309
 Requested integration accuracy:   0.10E-05
 d= 0,ls=0.0,diis     3   -390.6209940740 -2.99D-04  5.86D-04  7.15D-03     2.6
 Grid integrated density:      76.002323014575
 Requested integration accuracy:   0.10E-05
 d= 0,ls=0.0,diis     4   -390.6210183132 -2.42D-05  1.52D-04  4.57D-04     2.9
 Grid integrated density:      76.002318879071
 Requested integration accuracy:   0.10E-05
 d= 0,ls=0.0,diis     5   -390.6214760713 -4.58D-04  4.29D-05  2.13D-05     3.2
 Grid integrated density:      76.002319818285
 Requested integration accuracy:   0.10E-05
  Resetting Diis
 d= 0,ls=0.0,diis     6   -390.6212962303  1.80D-04  2.59D-05  5.48D-06     3.5
 Grid integrated density:      76.002320681065
 Requested integration accuracy:   0.10E-05
 d= 0,ls=0.0,diis     7   -390.6213339956 -3.78D-05  7.01D-06  1.69D-07     3.8
 Grid integrated density:      76.002320722258
 Requested integration accuracy:   0.10E-05
 d= 0,ls=0.0,diis     8   -390.6213077544  2.62D-05  4.59D-06  2.64D-07     4.0
 Grid integrated density:      76.002320769247
 Requested integration accuracy:   0.10E-05
 d= 0,ls=0.0,diis     9   -390.6213215476 -1.38D-05  6.58D-07  5.21D-09     4.3
 Grid integrated density:      76.002320772706
 Requested integration accuracy:   0.10E-05
 d= 0,ls=0.0,diis    10   -390.6213195224  2.03D-06  6.62D-08  1.01D-10     4.6
 Grid integrated density:      76.002320775922
 Requested integration accuracy:   0.10E-05
 d= 0,ls=0.0,diis    11   -390.6213192873  2.35D-07  1.83D-08  1.19D-11     4.9


         Total DFT energy =     -390.621319287330
      One electron energy =    -1713.473704981920
           Coulomb energy =      784.148401882365
    Exchange-Corr. energy =      -60.435963674367
 Nuclear repulsion energy =      599.139947486592

 Numeric. integr. density =       76.002320775922

     Total iterative time =      4.0s



                       DFT Final Molecular Orbital Analysis
                       ------------------------------------

 Vector    1  Occ=2.000000D+00  E=-1.028695D+01
              MO Center= -8.0D-01,  3.6D-01,  3.3D-01, r^2= 1.5D+00
   Bfn.  Coefficient  Atom+Function         Bfn.  Coefficient  Atom+Function  
  ----- ------------  ---------------      ----- ------------  ---------------
    41      0.818648   7 C  s                89     -0.527378  17 C  s         
     1     -0.175508   1 C  s                19     -0.113569   3 C  s         
    46     -0.045361   7 C  s                42      0.035176   7 C  s         
    94      0.029239  17 C  s         

 Vector    2  Occ=2.000000D+00  E=-1.028695D+01
              MO Center= -3.6D-03, -4.1D-03, -6.6D-01, r^2= 1.9D+00
   Bfn.  Coefficient  Atom+Function         Bfn.  Coefficient  Atom+Function  
  ----- ------------  ---------------      ----- ------------  ---------------
    89     -0.660073  17 C  s                 1      0.656758   1 C  s         
    19      0.250268   3 C  s                41     -0.249703   7 C  s         
     6     -0.036412   1 C  s                94      0.036570  17 C  s         
     2      0.028226   1 C  s                90     -0.028360  17 C  s         

 Vector    3  Occ=2.000000D+00  E=-1.028695D+01
              MO Center=  8.0D-01, -3.6D-01,  3.3D-01, r^2= 1.5D+00
   Bfn.  Coefficient  Atom+Function         Bfn.  Coefficient  Atom+Function  
  ----- ------------  ---------------      ----- ------------  ---------------
    19      0.816768   3 C  s                 1     -0.530434   1 C  s         
    89     -0.175232  17 C  s                41     -0.113296   7 C  s         
    24     -0.045278   3 C  s                20      0.035101   3 C  s         
     6      0.029387   1 C  s         

 Vector    4  Occ=2.000000D+00  E=-1.028688D+01
              MO Center=  3.4D-03, -1.5D-03,  9.4D-06, r^2= 2.4D+00
   Bfn.  Coefficient  Atom+Function         Bfn.  Coefficient  Atom+Function  
  ----- ------------  ---------------      ----- ------------  ---------------
     1      0.498136   1 C  s                19      0.498991   3 C  s         
    41      0.496248   7 C  s                89      0.497096  17 C  s         

 Vector    5  Occ=2.000000D+00  E=-1.027819D+01
              MO Center= -1.7D-02,  1.9D-02,  6.9D-08, r^2= 3.2D+00
   Bfn.  Coefficient  Atom+Function         Bfn.  Coefficient  Atom+Function  
  ----- ------------  ---------------      ----- ------------  ---------------
   104      0.543376  21 C  s                10      0.534547   2 C  s         
    54     -0.449472  10 C  s                78     -0.437444  15 C  s         
    32     -0.093235   6 C  s                67     -0.093235  13 C  s         
   109     -0.025306  21 C  s         

 Vector    6  Occ=2.000000D+00  E=-1.027819D+01
              MO Center= -2.5D-03,  1.3D-02,  2.7D-06, r^2= 3.2D+00
   Bfn.  Coefficient  Atom+Function         Bfn.  Coefficient  Atom+Function  
  ----- ------------  ---------------      ----- ------------  ---------------
    32      0.565793   6 C  s                67      0.565791  13 C  s         
    54     -0.371442  10 C  s                78     -0.361387  15 C  s         
   104     -0.205340  21 C  s                10     -0.201965   2 C  s         
    37     -0.026420   6 C  s                72     -0.026420  13 C  s         

 Vector    7  Occ=2.000000D+00  E=-1.027814D+01
              MO Center=  1.0D-02,  2.0D-04,  3.6D-06, r^2= 3.2D+00
   Bfn.  Coefficient  Atom+Function         Bfn.  Coefficient  Atom+Function  
  ----- ------------  ---------------      ----- ------------  ---------------
    10      0.705943   2 C  s               104     -0.701849  21 C  s         
    15     -0.028787   2 C  s               109      0.028527  21 C  s         
    11      0.027535   2 C  s               105     -0.027340  21 C  s         

 Vector    8  Occ=2.000000D+00  E=-1.027814D+01
              MO Center=  3.3D-04, -1.7D-02,  3.3D-06, r^2= 3.2D+00
   Bfn.  Coefficient  Atom+Function         Bfn.  Coefficient  Atom+Function  
  ----- ------------  ---------------      ----- ------------  ---------------
    78     -0.707336  15 C  s                54      0.700376  10 C  s         
    83      0.028875  15 C  s                59     -0.028437  10 C  s         
    79     -0.027602  15 C  s                55      0.027271  10 C  s         

 Vector    9  Occ=2.000000D+00  E=-1.027814D+01
              MO Center=  1.1D-06, -2.8D-07, -8.3D-06, r^2= 3.2D+00
   Bfn.  Coefficient  Atom+Function         Bfn.  Coefficient  Atom+Function  
  ----- ------------  ---------------      ----- ------------  ---------------
    32      0.703957   6 C  s                67     -0.703960  13 C  s         
    37     -0.028660   6 C  s                72      0.028660  13 C  s         
    33      0.027440   6 C  s                68     -0.027440  13 C  s         

 Vector   10  Occ=2.000000D+00  E=-1.027809D+01
              MO Center=  8.8D-03, -1.5D-02, -1.4D-06, r^2= 3.2D+00
   Bfn.  Coefficient  Atom+Function         Bfn.  Coefficient  Atom+Function  
  ----- ------------  ---------------      ----- ------------  ---------------
    78      0.410911  15 C  s                10      0.407520   2 C  s         
    32      0.408315   6 C  s                67      0.408316  13 C  s         
    54      0.400623  10 C  s               104      0.401409  21 C  s         

 Vector   11  Occ=2.000000D+00  E=-9.635867D-01
              MO Center=  1.3D-05, -2.9D-06, -2.5D-09, r^2= 2.9D+00
   Bfn.  Coefficient  Atom+Function         Bfn.  Coefficient  Atom+Function  
  ----- ------------  ---------------      ----- ------------  ---------------
     2      0.134152   1 C  s                20      0.134153   3 C  s         
    42      0.134151   7 C  s                90      0.134151  17 C  s         
     6      0.115863   1 C  s                24      0.115863   3 C  s         
    46      0.115862   7 C  s                94      0.115862  17 C  s         
    11      0.115098   2 C  s                33      0.115097   6 C  s         

 Vector   12  Occ=2.000000D+00  E=-8.591739D-01
              MO Center=  1.7D-01,  2.4D-01, -7.4D-02, r^2= 3.7D+00
   Bfn.  Coefficient  Atom+Function         Bfn.  Coefficient  Atom+Function  
  ----- ------------  ---------------      ----- ------------  ---------------
     2      0.203658   1 C  s                 6      0.190853   1 C  s         
    33     -0.182742   6 C  s                68      0.182742  13 C  s         
    37     -0.165587   6 C  s                72      0.165587  13 C  s         
    42     -0.132007   7 C  s                46     -0.123707   7 C  s         
     1     -0.112067   1 C  s                20     -0.103456   3 C  s         

 Vector   13  Occ=2.000000D+00  E=-8.591738D-01
              MO Center=  3.3D-02, -2.4D-01,  8.6D-02, r^2= 3.7D+00
   Bfn.  Coefficient  Atom+Function         Bfn.  Coefficient  Atom+Function  
  ----- ------------  ---------------      ----- ------------  ---------------
    11      0.190980   2 C  s               105     -0.190979  21 C  s         
    20      0.187254   3 C  s                24      0.175481   3 C  s         
    15      0.173052   2 C  s               109     -0.173051  21 C  s         
    90     -0.153169  17 C  s                94     -0.143539  17 C  s         
    10     -0.103933   2 C  s               104      0.103933  21 C  s         

 Vector   14  Occ=2.000000D+00  E=-8.591735D-01
              MO Center= -2.1D-01, -3.9D-03, -1.2D-02, r^2= 3.7D+00
   Bfn.  Coefficient  Atom+Function         Bfn.  Coefficient  Atom+Function  
  ----- ------------  ---------------      ----- ------------  ---------------
    55      0.196830  10 C  s                79     -0.196831  15 C  s         
    59      0.178353  10 C  s                83     -0.178354  15 C  s         
    90     -0.168792  17 C  s                42      0.164027   7 C  s         
    94     -0.158179  17 C  s                46      0.153714   7 C  s         
    54     -0.107117  10 C  s                78      0.107118  15 C  s         

 Vector   15  Occ=2.000000D+00  E=-7.573790D-01
              MO Center= -1.6D-07,  1.1D-07,  4.6D-08, r^2= 4.7D+00
   Bfn.  Coefficient  Atom+Function         Bfn.  Coefficient  Atom+Function  
  ----- ------------  ---------------      ----- ------------  ---------------
    37      0.228486   6 C  s                72      0.228486  13 C  s         
    33      0.213891   6 C  s                68      0.213891  13 C  s         
    59     -0.157369  10 C  s                83     -0.157368  15 C  s         
    55     -0.147316  10 C  s                79     -0.147316  15 C  s         
    32     -0.114021   6 C  s                67     -0.114021  13 C  s         

 Vector   16  Occ=2.000000D+00  E=-7.573784D-01
              MO Center= -1.4D-05,  2.1D-07,  3.9D-09, r^2= 4.7D+00
   Bfn.  Coefficient  Atom+Function         Bfn.  Coefficient  Atom+Function  
  ----- ------------  ---------------      ----- ------------  ---------------
    15      0.222772   2 C  s               109      0.222774  21 C  s         
    11      0.208542   2 C  s               105      0.208544  21 C  s         
    59     -0.172977  10 C  s                83     -0.172977  15 C  s         
    55     -0.161927  10 C  s                79     -0.161927  15 C  s         
    10     -0.111170   2 C  s               104     -0.111171  21 C  s         

 Vector   17  Occ=2.000000D+00  E=-6.723733D-01
              MO Center=  3.7D-01,  2.9D-02, -2.0D-02, r^2= 4.6D+00
   Bfn.  Coefficient  Atom+Function         Bfn.  Coefficient  Atom+Function  
  ----- ------------  ---------------      ----- ------------  ---------------
     6      0.216779   1 C  s                24     -0.203554   3 C  s         
     2      0.179677   1 C  s                20     -0.168716   3 C  s         
    37      0.150182   6 C  s                72     -0.150181  13 C  s         
    13      0.117806   2 C  py               33      0.115254   6 C  s         
    68     -0.115253  13 C  s                76      0.110106  14 H  s         

 Vector   18  Occ=2.000000D+00  E=-6.723728D-01
              MO Center= -3.7D-01,  2.5D-02,  3.7D-02, r^2= 4.6D+00
   Bfn.  Coefficient  Atom+Function         Bfn.  Coefficient  Atom+Function  
  ----- ------------  ---------------      ----- ------------  ---------------
    46      0.218386   7 C  s                94     -0.201498  17 C  s         
    42      0.181009   7 C  s                90     -0.167011  17 C  s         
    59     -0.150341  10 C  s                83      0.150339  15 C  s         
   108      0.117801  21 C  pz               55     -0.115375  10 C  s         
    79      0.115374  15 C  s               119      0.110923  25 H  s         

 Vector   19  Occ=2.000000D+00  E=-6.723723D-01
              MO Center= -1.2D-03, -5.4D-02, -1.7D-02, r^2= 4.7D+00
   Bfn.  Coefficient  Atom+Function         Bfn.  Coefficient  Atom+Function  
  ----- ------------  ---------------      ----- ------------  ---------------
    15      0.181400   2 C  s               109     -0.181400  21 C  s         
    94      0.164516  17 C  s                24     -0.157973   3 C  s         
     6     -0.144087   1 C  s                11      0.139210   2 C  s         
   105     -0.139211  21 C  s                46      0.137545   7 C  s         
    90      0.136359  17 C  s                20     -0.130935   3 C  s         

 Vector   20  Occ=2.000000D+00  E=-6.190807D-01
              MO Center=  8.5D-06,  3.9D-06,  4.0D-08, r^2= 4.9D+00
   Bfn.  Coefficient  Atom+Function         Bfn.  Coefficient  Atom+Function  
  ----- ------------  ---------------      ----- ------------  ---------------
    12      0.144065   2 C  px               36      0.144063   6 C  pz        
    57      0.144063  10 C  py               71     -0.144063  13 C  pz        
    81     -0.144062  15 C  py              106     -0.144063  21 C  px        
     6     -0.091081   1 C  s                15      0.091160   2 C  s         
    24     -0.091080   3 C  s                37      0.091158   6 C  s         

 Vector   21  Occ=2.000000D+00  E=-5.475995D-01
              MO Center= -1.5D-05, -7.7D-08, -2.8D-08, r^2= 5.8D+00
   Bfn.  Coefficient  Atom+Function         Bfn.  Coefficient  Atom+Function  
  ----- ------------  ---------------      ----- ------------  ---------------
     6      0.191054   1 C  s                24      0.191054   3 C  s         
    46      0.191062   7 C  s                94      0.191062  17 C  s         
    76      0.147137  14 H  s                87      0.147137  16 H  s         
   102      0.147134  20 H  s               119      0.147134  25 H  s         
    15     -0.116076   2 C  s                37     -0.116080   6 C  s         

 Vector   22  Occ=2.000000D+00  E=-5.431884D-01
              MO Center=  1.9D-01, -1.9D-01, -2.1D-01, r^2= 4.9D+00
   Bfn.  Coefficient  Atom+Function         Bfn.  Coefficient  Atom+Function  
  ----- ------------  ---------------      ----- ------------  ---------------
    30      0.137659   5 H  s               100      0.137714  19 H  s         
   113      0.135866  22 H  s                69     -0.129456  13 C  px        
    70      0.129449  13 C  py               12      0.125230   2 C  px        
    57     -0.125663  10 C  py               81     -0.125666  15 C  py        
   106      0.125226  21 C  px               13      0.121774   2 C  py        

 Vector   23  Occ=2.000000D+00  E=-5.431881D-01
              MO Center= -4.6D-02, -4.0D-02,  2.9D-01, r^2= 5.0D+00
   Bfn.  Coefficient  Atom+Function         Bfn.  Coefficient  Atom+Function  
  ----- ------------  ---------------      ----- ------------  ---------------
    57     -0.156011  10 C  py               81     -0.156006  15 C  py        
    34      0.151560   6 C  px               35      0.151276   6 C  py        
    12     -0.137457   2 C  px              106     -0.137453  21 C  px        
    98      0.125731  18 H  s               117      0.123457  24 H  s         
    63     -0.111097  11 H  s                28     -0.108826   4 H  s         

 Vector   24  Occ=2.000000D+00  E=-5.431875D-01
              MO Center= -1.4D-01,  2.3D-01, -7.7D-02, r^2= 5.0D+00
   Bfn.  Coefficient  Atom+Function         Bfn.  Coefficient  Atom+Function  
  ----- ------------  ---------------      ----- ------------  ---------------
    36      0.176087   6 C  pz               71      0.176084  13 C  pz        
    56     -0.140751  10 C  px               58     -0.139523  10 C  pz        
   115     -0.133696  23 H  s               121     -0.123827  26 H  s         
   107      0.122568  21 C  py              108     -0.120794  21 C  pz        
    65     -0.119446  12 H  s                12      0.095524   2 C  px        

 Vector   25  Occ=2.000000D+00  E=-4.943282D-01
              MO Center= -6.4D-02, -1.6D-01, -9.5D-02, r^2= 4.5D+00
   Bfn.  Coefficient  Atom+Function         Bfn.  Coefficient  Atom+Function  
  ----- ------------  ---------------      ----- ------------  ---------------
    80     -0.180594  15 C  px               69      0.177617  13 C  px        
    34      0.168193   6 C  px               56     -0.165215  10 C  px        
     4     -0.152304   1 C  py               44      0.152299   7 C  py        
    23      0.128664   3 C  pz               45     -0.128659   7 C  pz        
    82      0.127175  15 C  pz              108     -0.120389  21 C  pz        

 Vector   26  Occ=2.000000D+00  E=-4.943279D-01
              MO Center= -2.7D-02,  1.2D-02,  1.4D-01, r^2= 4.5D+00
   Bfn.  Coefficient  Atom+Function         Bfn.  Coefficient  Atom+Function  
  ----- ------------  ---------------      ----- ------------  ---------------
    35     -0.204621   6 C  py              107      0.199585  21 C  py        
    13      0.197300   2 C  py               70     -0.192275  13 C  py        
     5      0.153752   1 C  pz               93     -0.153749  17 C  pz        
     3      0.113808   1 C  px               21     -0.113809   3 C  px        
    50      0.112460   8 H  s                52     -0.112460   9 H  s         

 Vector   27  Occ=2.000000D+00  E=-4.943273D-01
              MO Center=  9.0D-02,  1.4D-01, -4.8D-02, r^2= 4.5D+00
   Bfn.  Coefficient  Atom+Function         Bfn.  Coefficient  Atom+Function  
  ----- ------------  ---------------      ----- ------------  ---------------
    58     -0.192648  10 C  pz               14      0.190225   2 C  pz        
   108      0.181927  21 C  pz               82     -0.179508  15 C  pz        
    22      0.150392   3 C  py               92     -0.150391  17 C  py        
    43     -0.131146   7 C  px               91      0.131149  17 C  px        
    56     -0.111262  10 C  px               63      0.110004  11 H  s         

 Vector   28  Occ=2.000000D+00  E=-4.797972D-01
              MO Center=  2.9D-03,  5.4D-02, -1.2D-02, r^2= 4.9D+00
   Bfn.  Coefficient  Atom+Function         Bfn.  Coefficient  Atom+Function  
  ----- ------------  ---------------      ----- ------------  ---------------
    12      0.164337   2 C  px              106      0.164336  21 C  px        
    15     -0.155042   2 C  s               109      0.155041  21 C  s         
     4      0.137051   1 C  py                5     -0.131887   1 C  pz        
    76      0.132074  14 H  s                44     -0.128368   7 C  py        
   119     -0.121029  25 H  s                45     -0.120305   7 C  pz        

 Vector   29  Occ=2.000000D+00  E=-4.797966D-01
              MO Center=  7.0D-02, -9.8D-03,  2.9D-02, r^2= 4.9D+00
   Bfn.  Coefficient  Atom+Function         Bfn.  Coefficient  Atom+Function  
  ----- ------------  ---------------      ----- ------------  ---------------
    57     -0.158925  10 C  py               81     -0.158924  15 C  py        
    59      0.149936  10 C  s                83     -0.149937  15 C  s         
    21      0.149037   3 C  px               87      0.145552  16 H  s         
    23      0.143759   3 C  pz               88      0.132252  16 H  s         
     3     -0.127432   1 C  px               22     -0.126908   3 C  py        

 Vector   30  Occ=2.000000D+00  E=-4.797961D-01
              MO Center= -7.3D-02, -4.4D-02, -1.7D-02, r^2= 4.9D+00
   Bfn.  Coefficient  Atom+Function         Bfn.  Coefficient  Atom+Function  
  ----- ------------  ---------------      ----- ------------  ---------------
    36      0.155192   6 C  pz               71      0.155192  13 C  pz        
    91      0.155355  17 C  px              102     -0.153604  20 H  s         
    92      0.151615  17 C  py               37     -0.146416   6 C  s         
    72      0.146417  13 C  s               103     -0.139568  20 H  s         
    93      0.135952  17 C  pz               13      0.121657   2 C  py        

 Vector   31  Occ=2.000000D+00  E=-4.202783D-01
              MO Center= -2.7D-06, -5.7D-07,  4.2D-08, r^2= 4.4D+00
   Bfn.  Coefficient  Atom+Function         Bfn.  Coefficient  Atom+Function  
  ----- ------------  ---------------      ----- ------------  ---------------
    57      0.264479  10 C  py               81     -0.264480  15 C  py        
    12     -0.188571   2 C  px              106      0.188573  21 C  px        
     4     -0.147580   1 C  py               22      0.147578   3 C  py        
    44     -0.147579   7 C  py               92      0.147578  17 C  py        
    61      0.139208  10 C  py               85     -0.139209  15 C  py        

 Vector   32  Occ=2.000000D+00  E=-4.202780D-01
              MO Center= -3.3D-06, -4.5D-07,  5.3D-08, r^2= 4.4D+00
   Bfn.  Coefficient  Atom+Function         Bfn.  Coefficient  Atom+Function  
  ----- ------------  ---------------      ----- ------------  ---------------
    36      0.261570   6 C  pz               71     -0.261570  13 C  pz        
    12     -0.196522   2 C  px              106      0.196523  21 C  px        
     5      0.145955   1 C  pz               23     -0.145955   3 C  pz        
    45     -0.145954   7 C  pz               93      0.145955  17 C  pz        
    40      0.137677   6 C  pz               75     -0.137677  13 C  pz        

 Vector   33  Occ=2.000000D+00  E=-4.114167D-01
              MO Center= -9.0D-02, -1.4D-01, -1.2D-01, r^2= 4.8D+00
   Bfn.  Coefficient  Atom+Function         Bfn.  Coefficient  Atom+Function  
  ----- ------------  ---------------      ----- ------------  ---------------
    35      0.178169   6 C  py               58     -0.178901  10 C  pz        
    70     -0.169000  13 C  py               82      0.168269  15 C  pz        
     4      0.138675   1 C  py               44     -0.138672   7 C  py        
    56      0.133865  10 C  px               13     -0.131161   2 C  py        
    23     -0.130636   3 C  pz               45      0.130631   7 C  pz        

 Vector   34  Occ=2.000000D+00  E=-4.114163D-01
              MO Center= -6.9D-02,  6.1D-02,  1.8D-01, r^2= 4.8D+00
   Bfn.  Coefficient  Atom+Function         Bfn.  Coefficient  Atom+Function  
  ----- ------------  ---------------      ----- ------------  ---------------
    69      0.181540  13 C  px               14      0.177604   2 C  pz        
   108     -0.172526  21 C  pz               34     -0.168585   6 C  px        
    70      0.161526  13 C  py               82     -0.156712  15 C  pz        
     5     -0.152109   1 C  pz               58      0.151637  10 C  pz        
    93      0.152108  17 C  pz               35     -0.146821   6 C  py        

 Vector   35  Occ=2.000000D+00  E=-4.114155D-01
              MO Center=  1.6D-01,  8.2D-02, -5.2D-02, r^2= 4.8D+00
   Bfn.  Coefficient  Atom+Function         Bfn.  Coefficient  Atom+Function  
  ----- ------------  ---------------      ----- ------------  ---------------
   107     -0.201183  21 C  py               80      0.198661  15 C  px        
    56     -0.193237  10 C  px               13      0.190719   2 C  py        
    43      0.148054   7 C  px               91     -0.148056  17 C  px        
    28     -0.135164   4 H  s                30      0.135164   5 H  s         
   108     -0.132752  21 C  pz               29     -0.130536   4 H  s         

 Vector   36  Occ=2.000000D+00  E=-3.645164D-01
              MO Center=  1.9D-01,  1.6D-02, -1.8D-02, r^2= 4.8D+00
   Bfn.  Coefficient  Atom+Function         Bfn.  Coefficient  Atom+Function  
  ----- ------------  ---------------      ----- ------------  ---------------
    77      0.182227  14 H  s                13     -0.174375   2 C  py        
    88     -0.167227  16 H  s                14      0.164757   2 C  pz        
     4      0.163925   1 C  py               22      0.163314   3 C  py        
    44      0.156676   7 C  py               92      0.157289  17 C  py        
    76      0.153424  14 H  s                 5     -0.143855   1 C  pz        

 Vector   37  Occ=2.000000D+00  E=-3.645156D-01
              MO Center= -2.1D-02,  7.6D-02,  9.5D-02, r^2= 4.9D+00
   Bfn.  Coefficient  Atom+Function         Bfn.  Coefficient  Atom+Function  
  ----- ------------  ---------------      ----- ------------  ---------------
    43      0.203664   7 C  px                3      0.201087   1 C  px        
    21      0.201590   3 C  px               91      0.199008  17 C  px        
    34     -0.178852   6 C  px               56     -0.175349  10 C  px        
   120     -0.174290  25 H  s                80     -0.146401  15 C  px        
   119     -0.146741  25 H  s                69     -0.142898  13 C  px        

 Vector   38  Occ=2.000000D+00  E=-3.645154D-01
              MO Center= -1.7D-01, -9.2D-02, -7.7D-02, r^2= 4.8D+00
   Bfn.  Coefficient  Atom+Function         Bfn.  Coefficient  Atom+Function  
  ----- ------------  ---------------      ----- ------------  ---------------
   103      0.205365  20 H  s               102      0.172904  20 H  s         
   108      0.166537  21 C  pz               93     -0.159470  17 C  pz        
    45     -0.156217   7 C  pz              107      0.154679  21 C  py        
    23     -0.153321   3 C  pz                5     -0.150068   1 C  pz        
    82      0.146345  15 C  pz               53      0.137189   9 H  s         

 Vector   39  Occ=0.000000D+00  E=-2.482105D-02
              MO Center=  7.7D-06,  1.0D-05,  4.6D-08, r^2= 9.1D+00
   Bfn.  Coefficient  Atom+Function         Bfn.  Coefficient  Atom+Function  
  ----- ------------  ---------------      ----- ------------  ---------------
    15      0.622056   2 C  s                37      0.622054   6 C  s         
    59      0.622058  10 C  s                72      0.622054  13 C  s         
    83      0.622055  15 C  s               109      0.622055  21 C  s         
    77     -0.456005  14 H  s                88     -0.456003  16 H  s         
   103     -0.456000  20 H  s               120     -0.456001  25 H  s         

 Vector   40  Occ=0.000000D+00  E= 3.403506D-02
              MO Center=  3.8D-01,  5.9D-01,  5.4D-01, r^2= 8.0D+00
   Bfn.  Coefficient  Atom+Function         Bfn.  Coefficient  Atom+Function  
  ----- ------------  ---------------      ----- ------------  ---------------
    31      0.928138   5 H  s                53      0.913427   9 H  s         
    66      0.911029  12 H  s                15     -0.680025   2 C  s         
   109      0.680036  21 C  s               103     -0.621731  20 H  s         
    37     -0.477541   6 C  s                72      0.477545  13 C  s         
    60     -0.446938  10 C  px               59     -0.443737  10 C  s         

 Vector   41  Occ=0.000000D+00  E= 3.403515D-02
              MO Center=  3.5D-01, -3.6D-01, -7.1D-01, r^2= 8.0D+00
   Bfn.  Coefficient  Atom+Function         Bfn.  Coefficient  Atom+Function  
  ----- ------------  ---------------      ----- ------------  ---------------
    29      0.906949   4 H  s                99      0.906772  18 H  s         
   116      0.884028  23 H  s                15     -0.629168   2 C  s         
    59      0.627490  10 C  s                83     -0.627483  15 C  s         
   109      0.629164  21 C  s               120     -0.609377  25 H  s         
    64     -0.563384  11 H  s               118     -0.563550  24 H  s         

 Vector   42  Occ=0.000000D+00  E= 3.403546D-02
              MO Center= -7.4D-01, -2.3D-01,  1.7D-01, r^2= 8.2D+00
   Bfn.  Coefficient  Atom+Function         Bfn.  Coefficient  Atom+Function  
  ----- ------------  ---------------      ----- ------------  ---------------
    51      0.858165   8 H  s               101      0.843418  19 H  s         
   122      0.816416  26 H  s                37     -0.749311   6 C  s         
    72      0.749304  13 C  s               114     -0.670705  22 H  s         
    64     -0.655967  11 H  s               118     -0.604219  24 H  s         
    77     -0.568785  14 H  s                59      0.544763  10 C  s         

 Vector   43  Occ=0.000000D+00  E= 4.108267D-02
              MO Center= -1.7D-01, -5.2D-01, -2.0D-01, r^2= 8.5D+00
   Bfn.  Coefficient  Atom+Function         Bfn.  Coefficient  Atom+Function  
  ----- ------------  ---------------      ----- ------------  ---------------
    94      1.520975  17 C  s                24     -1.063705   3 C  s         
   103     -0.989334  20 H  s                29      0.692298   4 H  s         
    88      0.691894  16 H  s                51      0.683894   8 H  s         
    64      0.658148  11 H  s               122     -0.499383  26 H  s         
   116     -0.490981  23 H  s                66     -0.432389  12 H  s         

 Vector   44  Occ=0.000000D+00  E= 4.108299D-02
              MO Center= -2.6D-01,  1.6D-01,  4.6D-01, r^2= 8.5D+00
   Bfn.  Coefficient  Atom+Function         Bfn.  Coefficient  Atom+Function  
  ----- ------------  ---------------      ----- ------------  ---------------
    46      1.517998   7 C  s               120     -0.987385  25 H  s         
    24     -0.975391   3 C  s               101      0.695818  19 H  s         
    31      0.674585   5 H  s               114      0.659985  22 H  s         
    88      0.634425  16 H  s                94     -0.566742  17 C  s         
    66     -0.466912  12 H  s               122     -0.445660  26 H  s         

 Vector   45  Occ=0.000000D+00  E= 4.108325D-02
              MO Center=  4.3D-01,  3.6D-01, -2.6D-01, r^2= 8.4D+00
   Bfn.  Coefficient  Atom+Function         Bfn.  Coefficient  Atom+Function  
  ----- ------------  ---------------      ----- ------------  ---------------
     6      1.600629   1 C  s                77     -1.041119  14 H  s         
    24     -0.774752   3 C  s                53      0.724916   9 H  s         
    99      0.711055  18 H  s               118      0.704970  24 H  s         
    46     -0.605533   7 C  s                88      0.503955  16 H  s         
   120      0.393864  25 H  s                18      0.381129   2 C  pz        

 Vector   46  Occ=0.000000D+00  E= 5.874181D-02
              MO Center=  6.2D-07, -1.0D-05, -3.1D-07, r^2= 8.1D+00
   Bfn.  Coefficient  Atom+Function         Bfn.  Coefficient  Atom+Function  
  ----- ------------  ---------------      ----- ------------  ---------------
    77      0.882052  14 H  s                88      0.882062  16 H  s         
   103      0.882068  20 H  s               120      0.882057  25 H  s         
    16      0.605860   2 C  px               40      0.605863   6 C  pz        
    61      0.605862  10 C  py               75     -0.605863  13 C  pz        
    85     -0.605861  15 C  py              110     -0.605855  21 C  px        

 Vector   47  Occ=0.000000D+00  E= 7.402031D-02
              MO Center= -9.2D-06,  6.0D-06,  1.0D-08, r^2= 8.0D+00
   Bfn.  Coefficient  Atom+Function         Bfn.  Coefficient  Atom+Function  
  ----- ------------  ---------------      ----- ------------  ---------------
    15      1.775632   2 C  s               109      1.775642  21 C  s         
    59     -1.591414  10 C  s                83     -1.591409  15 C  s         
    29     -0.579512   4 H  s                31     -0.579515   5 H  s         
   118     -0.579517  24 H  s               122     -0.579513  26 H  s         
     7     -0.525147   1 C  px               25     -0.525156   3 C  px        

 Vector   48  Occ=0.000000D+00  E= 7.402073D-02
              MO Center= -4.9D-07,  2.3D-06, -3.3D-08, r^2= 8.0D+00
   Bfn.  Coefficient  Atom+Function         Bfn.  Coefficient  Atom+Function  
  ----- ------------  ---------------      ----- ------------  ---------------
    37      1.943973   6 C  s                72      1.943973  13 C  s         
    59     -1.131532  10 C  s                83     -1.131529  15 C  s         
    15     -0.812437   2 C  s               109     -0.812442  21 C  s         
    51     -0.634450   8 H  s                53     -0.634452   9 H  s         
   114     -0.634452  22 H  s               116     -0.634450  23 H  s         

 Vector   49  Occ=0.000000D+00  E= 1.033564D-01
              MO Center=  4.7D-02, -3.7D-01,  1.7D-01, r^2= 9.4D+00
   Bfn.  Coefficient  Atom+Function         Bfn.  Coefficient  Atom+Function  
  ----- ------------  ---------------      ----- ------------  ---------------
    15      1.427156   2 C  s               109     -1.427134  21 C  s         
    24     -1.235496   3 C  s                88      1.091782  16 H  s         
    94      1.010824  17 C  s               103     -0.893238  20 H  s         
   122      0.784159  26 H  s                29     -0.744255   4 H  s         
    46      0.747270   7 C  s                31     -0.697513   5 H  s         

 Vector   50  Occ=0.000000D+00  E= 1.033566D-01
              MO Center=  2.9D-01,  5.6D-02, -2.5D-01, r^2= 9.4D+00
   Bfn.  Coefficient  Atom+Function         Bfn.  Coefficient  Atom+Function  
  ----- ------------  ---------------      ----- ------------  ---------------
    59      1.433218  10 C  s                83     -1.433279  15 C  s         
     6     -1.243957   1 C  s                77      1.099264  14 H  s         
    24      0.910349   3 C  s                94      0.855226  17 C  s         
    88     -0.804462  16 H  s                99      0.788088  18 H  s         
   103     -0.755742  20 H  s                66     -0.728844  12 H  s         

 Vector   51  Occ=0.000000D+00  E= 1.033569D-01
              MO Center= -3.4D-01,  3.1D-01,  8.3D-02, r^2= 9.3D+00
   Bfn.  Coefficient  Atom+Function         Bfn.  Coefficient  Atom+Function  
  ----- ------------  ---------------      ----- ------------  ---------------
    37      1.403747   6 C  s                72     -1.403732  13 C  s         
    46     -1.305469   7 C  s               120      1.153619  25 H  s         
    94      0.884085  17 C  s                 6      0.845118   1 C  s         
   114      0.787359  22 H  s               103     -0.781243  20 H  s         
    77     -0.746825  14 H  s                51     -0.712496   8 H  s         

 Vector   52  Occ=0.000000D+00  E= 1.131019D-01
              MO Center=  1.0D-01,  7.7D-01, -5.1D-02, r^2= 7.9D+00
   Bfn.  Coefficient  Atom+Function         Bfn.  Coefficient  Atom+Function  
  ----- ------------  ---------------      ----- ------------  ---------------
    64      1.078071  11 H  s                66     -1.078070  12 H  s         
    60      0.779175  10 C  px               29     -0.766620   4 H  s         
    31      0.766554   5 H  s               118     -0.672080  24 H  s         
   122      0.672146  26 H  s                17     -0.658606   2 C  py        
   111      0.622050  21 C  py               62      0.597724  10 C  pz        

 Vector   53  Occ=0.000000D+00  E= 1.131028D-01
              MO Center= -5.0D-02,  4.0D-03,  1.5D-01, r^2= 8.5D+00
   Bfn.  Coefficient  Atom+Function         Bfn.  Coefficient  Atom+Function  
  ----- ------------  ---------------      ----- ------------  ---------------
    51      0.866732   8 H  s                53     -0.866733   9 H  s         
   118      0.822976  24 H  s               122     -0.822981  26 H  s         
    29     -0.781753   4 H  s                31      0.781757   5 H  s         
    38      0.739160   6 C  px              114     -0.738103  22 H  s         
   116      0.738104  23 H  s               112      0.722211  21 C  pz        

 Vector   54  Occ=0.000000D+00  E= 1.131033D-01
              MO Center= -5.2D-02, -7.8D-01, -1.0D-01, r^2= 7.9D+00
   Bfn.  Coefficient  Atom+Function         Bfn.  Coefficient  Atom+Function  
  ----- ------------  ---------------      ----- ------------  ---------------
    99      1.079287  18 H  s               101     -1.079279  19 H  s         
    86      0.778974  15 C  pz              114      0.766292  22 H  s         
   116     -0.766348  23 H  s                51      0.669796   8 H  s         
    53     -0.669742   9 H  s                74     -0.657850  13 C  py        
    39      0.620481   6 C  py               84     -0.599465  15 C  px        

 Vector   55  Occ=0.000000D+00  E= 1.417230D-01
              MO Center= -4.9D-01,  2.7D-02,  2.8D-02, r^2= 5.7D+00
   Bfn.  Coefficient  Atom+Function         Bfn.  Coefficient  Atom+Function  
  ----- ------------  ---------------      ----- ------------  ---------------
    46      2.069619   7 C  s                94     -1.957758  17 C  s         
    59     -0.728805  10 C  s                83      0.728838  15 C  s         
    37     -0.707267   6 C  s                72      0.707243  13 C  s         
   112     -0.681080  21 C  pz              111     -0.672650  21 C  py        
    61      0.668176  10 C  py               85      0.668304  15 C  py        

 Vector   56  Occ=0.000000D+00  E= 1.417237D-01
              MO Center=  2.9D-02,  1.4D-01, -1.9D-01, r^2= 5.9D+00
   Bfn.  Coefficient  Atom+Function         Bfn.  Coefficient  Atom+Function  
  ----- ------------  ---------------      ----- ------------  ---------------
     6      1.872401   1 C  s                94     -1.450703  17 C  s         
    46     -1.312013   7 C  s                15     -0.985072   2 C  s         
   109      0.985110  21 C  s                16      0.903107   2 C  px        
   110      0.903302  21 C  px               24      0.890225   3 C  s         
    74     -0.711901  13 C  py               62      0.698247  10 C  pz        

 Vector   57  Occ=0.000000D+00  E= 1.417238D-01
              MO Center=  4.7D-01, -1.7D-01,  1.6D-01, r^2= 5.7D+00
   Bfn.  Coefficient  Atom+Function         Bfn.  Coefficient  Atom+Function  
  ----- ------------  ---------------      ----- ------------  ---------------
    24      2.300718   3 C  s                 6     -1.608331   1 C  s         
    26      0.722024   3 C  py               27     -0.724905   3 C  pz        
    37     -0.714279   6 C  s                72      0.714304  13 C  s         
    88      0.710673  16 H  s                25     -0.686717   3 C  px        
    59      0.679611  10 C  s                83     -0.679637  15 C  s         

 Vector   58  Occ=0.000000D+00  E= 1.453928D-01
              MO Center=  2.5D-05, -1.1D-06,  1.7D-08, r^2= 6.6D+00
   Bfn.  Coefficient  Atom+Function         Bfn.  Coefficient  Atom+Function  
  ----- ------------  ---------------      ----- ------------  ---------------
    16      0.886106   2 C  px              110     -0.885905  21 C  px        
    61     -0.739556  10 C  py               85      0.739431  15 C  py        
    29     -0.664844   4 H  s                31     -0.664800   5 H  s         
   118     -0.664773  24 H  s               122     -0.664818  26 H  s         
    64      0.554889  11 H  s                66      0.554827  12 H  s         

 Vector   59  Occ=0.000000D+00  E= 1.453933D-01
              MO Center=  4.5D-06, -6.7D-07, -2.4D-07, r^2= 6.6D+00
   Bfn.  Coefficient  Atom+Function         Bfn.  Coefficient  Atom+Function  
  ----- ------------  ---------------      ----- ------------  ---------------
    40      0.938490   6 C  pz               75     -0.938493  13 C  pz        
    51     -0.704215   8 H  s                53     -0.704155   9 H  s         
   114     -0.704180  22 H  s               116     -0.704190  23 H  s         
    61     -0.596178  10 C  py               85      0.596077  15 C  py        
     9     -0.524440   1 C  pz               27      0.524396   3 C  pz        

 Vector   60  Occ=0.000000D+00  E= 1.852730D-01
              MO Center= -9.9D-06, -4.6D-05, -2.8D-07, r^2= 6.5D+00
   Bfn.  Coefficient  Atom+Function         Bfn.  Coefficient  Atom+Function  
  ----- ------------  ---------------      ----- ------------  ---------------
     6      2.284004   1 C  s                24      2.284018   3 C  s         
    46      2.283951   7 C  s                94      2.283965  17 C  s         
    15     -1.494212   2 C  s                37     -1.494214   6 C  s         
    59     -1.494102  10 C  s                72     -1.494215  13 C  s         
    83     -1.494317  15 C  s               109     -1.494240  21 C  s         

 Vector   61  Occ=0.000000D+00  E= 1.903942D-01
              MO Center=  1.6D-01, -1.5D-02, -7.7D-03, r^2= 5.6D+00
   Bfn.  Coefficient  Atom+Function         Bfn.  Coefficient  Atom+Function  
  ----- ------------  ---------------      ----- ------------  ---------------
    37      1.550108   6 C  s                72     -1.550038  13 C  s         
    95      1.067420  17 C  px                8     -1.038300   1 C  py        
    27     -1.007523   3 C  pz               40     -1.003526   6 C  pz        
    47     -1.008003   7 C  px               75     -1.003486  13 C  pz        
    26     -0.972886   3 C  py                9     -0.942113   1 C  pz        

 Vector   62  Occ=0.000000D+00  E= 1.903948D-01
              MO Center= -7.9D-02, -8.4D-02,  1.8D-01, r^2= 5.6D+00
   Bfn.  Coefficient  Atom+Function         Bfn.  Coefficient  Atom+Function  
  ----- ------------  ---------------      ----- ------------  ---------------
    97      1.251870  17 C  pz               25     -1.224090   3 C  px        
    48     -1.226902   7 C  py               15      1.208204   2 C  s         
   109     -1.208021  21 C  s                59      1.140242  10 C  s         
    83     -1.140066  15 C  s                 9     -0.829454   1 C  pz        
    16     -0.782164   2 C  px              110     -0.782073  21 C  px        

 Vector   63  Occ=0.000000D+00  E= 1.903948D-01
              MO Center= -8.3D-02,  9.9D-02, -1.7D-01, r^2= 5.6D+00
   Bfn.  Coefficient  Atom+Function         Bfn.  Coefficient  Atom+Function  
  ----- ------------  ---------------      ----- ------------  ---------------
    49      1.262231   7 C  pz               15     -1.252937   2 C  s         
   109      1.252954  21 C  s                96     -1.243748  17 C  py        
     7      1.235575   1 C  px               59      1.052742  10 C  s         
    83     -1.052697  15 C  s                16      0.811131   2 C  px        
   110      0.811152  21 C  px               27     -0.781334   3 C  pz        

 Vector   64  Occ=0.000000D+00  E= 2.172197D-01
              MO Center= -1.8D-02,  1.6D-01, -1.1D-01, r^2= 6.0D+00
   Bfn.  Coefficient  Atom+Function         Bfn.  Coefficient  Atom+Function  
  ----- ------------  ---------------      ----- ------------  ---------------
    60      1.231318  10 C  px               73     -1.206673  13 C  px        
    38     -1.111195   6 C  px               84      1.086546  15 C  px        
     8     -0.986294   1 C  py               48      0.986292   7 C  py        
     9     -0.936900   1 C  pz               97      0.936901  17 C  pz        
    27      0.745578   3 C  pz               49     -0.745579   7 C  pz        

 Vector   65  Occ=0.000000D+00  E= 2.172200D-01
              MO Center= -4.7D-01, -1.3D-01,  1.3D-01, r^2= 5.7D+00
   Bfn.  Coefficient  Atom+Function         Bfn.  Coefficient  Atom+Function  
  ----- ------------  ---------------      ----- ------------  ---------------
    47      1.190714   7 C  px               95     -1.190713  17 C  px        
   111      1.120608  21 C  py              112      1.113982  21 C  pz        
    39     -0.910295   6 C  py               86     -0.899906  15 C  pz        
    27     -0.769268   3 C  pz               49      0.769263   7 C  pz        
    26     -0.761728   3 C  py               96      0.761721  17 C  py        

 Vector   66  Occ=0.000000D+00  E= 2.172216D-01
              MO Center=  4.9D-01, -2.8D-02, -2.8D-02, r^2= 5.8D+00
   Bfn.  Coefficient  Atom+Function         Bfn.  Coefficient  Atom+Function  
  ----- ------------  ---------------      ----- ------------  ---------------
     7      1.213812   1 C  px               25     -1.213811   3 C  px        
    17     -1.140051   2 C  py               18      1.137943   2 C  pz        
    74      0.855336  13 C  py               86     -0.852031  15 C  pz        
    39      0.820112   6 C  py               62     -0.816805  10 C  pz        
     9      0.643399   1 C  pz               26     -0.640999   3 C  py        

 Vector   67  Occ=0.000000D+00  E= 4.760035D-01
              MO Center=  6.8D-01, -2.6D-02, -2.4D-02, r^2= 5.8D+00
   Bfn.  Coefficient  Atom+Function         Bfn.  Coefficient  Atom+Function  
  ----- ------------  ---------------      ----- ------------  ---------------
    17      0.478446   2 C  py               18     -0.465283   2 C  pz        
     7      0.457779   1 C  px               25     -0.457718   3 C  px        
    13     -0.407481   2 C  py               14      0.403667   2 C  pz        
    84      0.316258  15 C  px               60     -0.302987  10 C  px        
     3     -0.287658   1 C  px               21      0.287572   3 C  px        

 Vector   68  Occ=0.000000D+00  E= 4.760051D-01
              MO Center= -5.8D-01, -3.1D-01,  3.5D-01, r^2= 5.7D+00
   Bfn.  Coefficient  Atom+Function         Bfn.  Coefficient  Atom+Function  
  ----- ------------  ---------------      ----- ------------  ---------------
   112     -0.445659  21 C  pz              111     -0.431492  21 C  py        
    47      0.425399   7 C  px               95     -0.425322  17 C  px        
    38     -0.383871   6 C  px              108      0.378942  21 C  pz        
   107      0.374957  21 C  py               27     -0.346584   3 C  pz        
    49      0.346704   7 C  pz               84      0.347142  15 C  px        

 Vector   69  Occ=0.000000D+00  E= 4.760052D-01
              MO Center= -9.3D-02,  3.3D-01, -3.3D-01, r^2= 6.0D+00
   Bfn.  Coefficient  Atom+Function         Bfn.  Coefficient  Atom+Function  
  ----- ------------  ---------------      ----- ------------  ---------------
    62      0.452652  10 C  pz               74      0.451631  13 C  py        
     8     -0.387085   1 C  py                9     -0.385478   1 C  pz        
    48      0.387104   7 C  py               97      0.385442  17 C  pz        
    58     -0.358087  10 C  pz               70     -0.356940  13 C  py        
    60     -0.344663  10 C  px               73      0.342523  13 C  px        

 Vector   70  Occ=0.000000D+00  E= 4.763515D-01
              MO Center= -4.5D-01,  7.8D-03, -7.3D-03, r^2= 5.2D+00
   Bfn.  Coefficient  Atom+Function         Bfn.  Coefficient  Atom+Function  
  ----- ------------  ---------------      ----- ------------  ---------------
    40      0.651780   6 C  pz               75      0.651784  13 C  pz        
    61     -0.579482  10 C  py               85     -0.579491  15 C  py        
    37     -0.488814   6 C  s                72      0.488815  13 C  s         
    59      0.434606  10 C  s                83     -0.434597  15 C  s         
     7      0.407085   1 C  px               25     -0.409111   3 C  px        

 Vector   71  Occ=0.000000D+00  E= 4.763526D-01
              MO Center=  9.0D-04,  2.1D-02,  4.0D-02, r^2= 5.4D+00
   Bfn.  Coefficient  Atom+Function         Bfn.  Coefficient  Atom+Function  
  ----- ------------  ---------------      ----- ------------  ---------------
    16      0.871122   2 C  px              110      0.871143  21 C  px        
    15     -0.653324   2 C  s               109      0.653344  21 C  s         
    12     -0.486395   2 C  px              106     -0.486406  21 C  px        
    39     -0.352745   6 C  py               62     -0.352277  10 C  pz        
    74      0.349750  13 C  py               86      0.350946  15 C  pz        

 Vector   72  Occ=0.000000D+00  E= 4.763529D-01
              MO Center=  4.5D-01, -2.9D-02, -3.2D-02, r^2= 5.2D+00
   Bfn.  Coefficient  Atom+Function         Bfn.  Coefficient  Atom+Function  
  ----- ------------  ---------------      ----- ------------  ---------------
    61      0.650760  10 C  py               85      0.650770  15 C  py        
    40      0.579241   6 C  pz               75      0.579236  13 C  pz        
    59     -0.488059  10 C  s                83      0.488050  15 C  s         
    37     -0.434406   6 C  s                72      0.434405  13 C  s         
    46      0.414571   7 C  s                47      0.411797   7 C  px        

 Vector   73  Occ=0.000000D+00  E= 5.344560D-01
              MO Center= -2.3D-05,  4.1D-06,  4.1D-08, r^2= 4.9D+00
   Bfn.  Coefficient  Atom+Function         Bfn.  Coefficient  Atom+Function  
  ----- ------------  ---------------      ----- ------------  ---------------
    16      0.389316   2 C  px               40      0.389402   6 C  pz        
    61      0.389390  10 C  py               75     -0.389402  13 C  pz        
    85     -0.389386  15 C  py              110     -0.389403  21 C  px        
    12     -0.323428   2 C  px               36     -0.323460   6 C  pz        
    57     -0.323455  10 C  py               71      0.323460  13 C  pz        

 Vector   74  Occ=0.000000D+00  E= 5.489850D-01
              MO Center= -5.4D-01,  8.2D-03,  7.5D-03, r^2= 4.6D+00
   Bfn.  Coefficient  Atom+Function         Bfn.  Coefficient  Atom+Function  
  ----- ------------  ---------------      ----- ------------  ---------------
    46      1.349487   7 C  s                94     -1.330085  17 C  s         
   111     -0.622479  21 C  py              112     -0.604752  21 C  pz        
    40      0.529170   6 C  pz               75      0.529166  13 C  pz        
    61      0.480171  10 C  py               85      0.480175  15 C  py        
    47      0.447342   7 C  px               95     -0.444152  17 C  px        

 Vector   75  Occ=0.000000D+00  E= 5.489858D-01
              MO Center=  5.3D-01,  7.8D-02, -8.6D-02, r^2= 4.6D+00
   Bfn.  Coefficient  Atom+Function         Bfn.  Coefficient  Atom+Function  
  ----- ------------  ---------------      ----- ------------  ---------------
     6      1.433536   1 C  s                24     -1.230652   3 C  s         
    18      0.619083   2 C  pz               17     -0.601061   2 C  py        
    61      0.526696  10 C  py               85      0.526693  15 C  py        
    40     -0.476866   6 C  pz               75     -0.476878  13 C  pz        
     7     -0.459882   1 C  px               73     -0.448092  13 C  px        

 Vector   76  Occ=0.000000D+00  E= 5.489859D-01
              MO Center=  6.2D-03, -8.6D-02,  7.8D-02, r^2= 4.9D+00
   Bfn.  Coefficient  Atom+Function         Bfn.  Coefficient  Atom+Function  
  ----- ------------  ---------------      ----- ------------  ---------------
    24      1.087015   3 C  s                94     -0.949714  17 C  s         
    46     -0.936383   7 C  s                 6      0.799106   1 C  s         
    16      0.710474   2 C  px              110      0.710470  21 C  px        
    39      0.582501   6 C  py               86     -0.584647  15 C  pz        
    15     -0.560670   2 C  s               109      0.560719  21 C  s         

 Vector   77  Occ=0.000000D+00  E= 5.892661D-01
              MO Center=  5.3D-07,  1.3D-05, -1.0D-07, r^2= 4.7D+00
   Bfn.  Coefficient  Atom+Function         Bfn.  Coefficient  Atom+Function  
  ----- ------------  ---------------      ----- ------------  ---------------
    59      1.001990  10 C  s                83      1.001966  15 C  s         
     8     -0.803861   1 C  py               26      0.803848   3 C  py        
    48     -0.803857   7 C  py               96      0.803844  17 C  py        
    37     -0.704827   6 C  s                72     -0.704827  13 C  s         
    61     -0.664308  10 C  py               85      0.664300  15 C  py        

 Vector   78  Occ=0.000000D+00  E= 5.892667D-01
              MO Center= -1.7D-06,  5.2D-07, -1.1D-07, r^2= 4.7D+00
   Bfn.  Coefficient  Atom+Function         Bfn.  Coefficient  Atom+Function  
  ----- ------------  ---------------      ----- ------------  ---------------
    15      0.985419   2 C  s               109      0.985405  21 C  s         
     7     -0.790599   1 C  px               25     -0.790598   3 C  px        
    47      0.790635   7 C  px               95      0.790634  17 C  px        
    37     -0.750083   6 C  s                72     -0.750083  13 C  s         
    16     -0.653287   2 C  px              110      0.653261  21 C  px        

 Vector   79  Occ=0.000000D+00  E= 5.979467D-01
              MO Center=  1.6D-05,  2.1D-06, -3.7D-08, r^2= 4.0D+00
   Bfn.  Coefficient  Atom+Function         Bfn.  Coefficient  Atom+Function  
  ----- ------------  ---------------      ----- ------------  ---------------
     6      0.854258   1 C  s                24      0.854255   3 C  s         
    46      0.854234   7 C  s                94      0.854231  17 C  s         
    16      0.589124   2 C  px               40      0.589052   6 C  pz        
    61      0.589070  10 C  py               75     -0.589052  13 C  pz        
    85     -0.589074  15 C  py              110     -0.589099  21 C  px        

 Vector   80  Occ=0.000000D+00  E= 6.240851D-01
              MO Center=  1.6D-06, -9.0D-06, -9.7D-08, r^2= 7.4D+00
   Bfn.  Coefficient  Atom+Function         Bfn.  Coefficient  Atom+Function  
  ----- ------------  ---------------      ----- ------------  ---------------
    40      1.401242   6 C  pz               75     -1.401242  13 C  pz        
    37      1.037043   6 C  s                72      1.037043  13 C  s         
    61     -0.920418  10 C  py               85      0.920427  15 C  py        
    59     -0.681141  10 C  s                83     -0.681178  15 C  s         
    51     -0.505288   8 H  s                53     -0.505288   9 H  s         

 Vector   81  Occ=0.000000D+00  E= 6.240882D-01
              MO Center=  3.0D-06, -1.2D-05, -5.2D-08, r^2= 7.4D+00
   Bfn.  Coefficient  Atom+Function         Bfn.  Coefficient  Atom+Function  
[...]
     Occ.   35  a   ---  Virt.   40  a        0.06371
     Occ.   36  a   ---  Virt.   47  a       -0.35222
     Occ.   36  a   ---  Virt.   48  a       -0.34368
     Occ.   37  a   ---  Virt.   47  a       -0.24541
     Occ.   37  a   ---  Virt.   48  a        0.08040
     Occ.   38  a   ---  Virt.   47  a       -0.78582
     Occ.   38  a   ---  Virt.   48  a        0.17653
     Occ.   38  a   ---  Virt.   58  a        0.06457
  ----------------------------------------------------------------------------
  Root  31 singlet a              0.399636936 a.u.               10.8747 eV 
  ----------------------------------------------------------------------------
     Transition Moments    X -0.00001   Y -0.00000   Z -0.00001
     Transition Moments   XX  0.00002  XY  0.00008  XZ  0.00001
     Transition Moments   YY -0.00005  YZ  0.00004  ZZ  0.00003
     Dipole Oscillator Strength                    0.0000000001
     Electric Quadrupole                           0.0000000000
     Magnetic Dipole                               0.0000123045
     Total Oscillator Strength                     0.0000123045

     Occ.   35  a   ---  Virt.   42  a       -0.08575
     Occ.   36  a   ---  Virt.   48  a        0.05328
     Occ.   37  a   ---  Virt.   47  a        0.38438
     Occ.   37  a   ---  Virt.   48  a        0.84099
     Occ.   37  a   ---  Virt.   59  a       -0.07007
     Occ.   38  a   ---  Virt.   47  a       -0.13219
     Occ.   38  a   ---  Virt.   48  a       -0.28573
  ----------------------------------------------------------------------------
  Root  32 singlet a              0.399637491 a.u.               10.8747 eV 
  ----------------------------------------------------------------------------
     Transition Moments    X -0.00001   Y  0.00001   Z -0.00002
     Transition Moments   XX -0.00001  XY  0.00008  XZ  0.00001
     Transition Moments   YY  0.00000  YZ  0.00001  ZZ  0.00001
     Dipole Oscillator Strength                    0.0000000001
     Electric Quadrupole                           0.0000000000
     Magnetic Dipole                               0.0000123043
     Total Oscillator Strength                     0.0000123043

     Occ.   33  a   ---  Virt.   40  a        0.09472
     Occ.   34  a   ---  Virt.   41  a        0.07525
     Occ.   36  a   ---  Virt.   47  a       -0.68279
     Occ.   36  a   ---  Virt.   48  a        0.49551
     Occ.   36  a   ---  Virt.   58  a        0.05779
     Occ.   37  a   ---  Virt.   48  a       -0.18703
     Occ.   38  a   ---  Virt.   48  a       -0.45633
  ----------------------------------------------------------------------------
  Root  33 singlet a              0.402866832 a.u.               10.9626 eV 
  ----------------------------------------------------------------------------
     Transition Moments    X  0.14079   Y  0.00726   Z -0.01594
     Transition Moments   XX  0.00003  XY  0.05744  XZ -0.02614
     Transition Moments   YY -0.00000  YZ -0.50749  ZZ -0.00003
     Dipole Oscillator Strength                    0.0054062246
     Electric Quadrupole                           0.0000000911
     Magnetic Dipole                               0.0000000000
     Total Oscillator Strength                     0.0054063157

     Occ.   31  a   ---  Virt.   40  a        0.06536
     Occ.   31  a   ---  Virt.   41  a        0.07188
     Occ.   32  a   ---  Virt.   40  a        0.08262
     Occ.   32  a   ---  Virt.   41  a        0.06215
     Occ.   35  a   ---  Virt.   44  a        0.05702
     Occ.   37  a   ---  Virt.   46  a       -0.06497
     Occ.   37  a   ---  Virt.   47  a       -0.84025
     Occ.   37  a   ---  Virt.   48  a        0.35097
     Occ.   38  a   ---  Virt.   47  a        0.26572
     Occ.   38  a   ---  Virt.   48  a       -0.22635
  ----------------------------------------------------------------------------
  Root  34 singlet a              0.402867151 a.u.               10.9626 eV 
  ----------------------------------------------------------------------------
     Transition Moments    X  0.01560   Y -0.11077   Z  0.08729
     Transition Moments   XX -0.00001  XY -0.31458  XZ  0.39921
     Transition Moments   YY -0.00006  YZ -0.05626  ZZ  0.00004
     Dipole Oscillator Strength                    0.0054071416
     Electric Quadrupole                           0.0000000910
     Magnetic Dipole                               0.0000000000
     Total Oscillator Strength                     0.0054072326

     Occ.   31  a   ---  Virt.   40  a        0.07139
     Occ.   31  a   ---  Virt.   41  a       -0.07311
     Occ.   32  a   ---  Virt.   41  a        0.05342
     Occ.   32  a   ---  Virt.   42  a       -0.05388
     Occ.   33  a   ---  Virt.   44  a        0.06207
     Occ.   34  a   ---  Virt.   43  a        0.06249
     Occ.   36  a   ---  Virt.   46  a        0.06748
     Occ.   36  a   ---  Virt.   47  a       -0.51019
     Occ.   36  a   ---  Virt.   48  a        0.06259
     Occ.   37  a   ---  Virt.   47  a        0.05430
     Occ.   37  a   ---  Virt.   48  a        0.27713
     Occ.   38  a   ---  Virt.   47  a        0.36722
     Occ.   38  a   ---  Virt.   48  a        0.68784
  ----------------------------------------------------------------------------
  Root  35 singlet a              0.402867632 a.u.               10.9626 eV 
  ----------------------------------------------------------------------------
     Transition Moments    X  0.00799   Y  0.08837   Z  0.11070
     Transition Moments   XX  0.00001  XY -0.39890  XZ -0.31844
     Transition Moments   YY  0.00001  YZ -0.02878  ZZ -0.00000
     Dipole Oscillator Strength                    0.0054060742
     Electric Quadrupole                           0.0000000910
     Magnetic Dipole                               0.0000000000
     Total Oscillator Strength                     0.0054061652

     Occ.   31  a   ---  Virt.   41  a        0.05101
     Occ.   31  a   ---  Virt.   42  a        0.07378
     Occ.   32  a   ---  Virt.   42  a       -0.09864
     Occ.   34  a   ---  Virt.   45  a       -0.05715
     Occ.   35  a   ---  Virt.   43  a        0.05218
     Occ.   36  a   ---  Virt.   47  a        0.32252
     Occ.   36  a   ---  Virt.   48  a        0.76357
     Occ.   37  a   ---  Virt.   47  a       -0.18801
     Occ.   37  a   ---  Virt.   48  a        0.08730
     Occ.   38  a   ---  Virt.   46  a        0.06603
     Occ.   38  a   ---  Virt.   47  a       -0.33689
     Occ.   38  a   ---  Virt.   48  a        0.32927
  ----------------------------------------------------------------------------
  Root  36 singlet a              0.404636183 a.u.               11.0107 eV 
  ----------------------------------------------------------------------------
     Transition Moments    X -0.00000   Y -0.00001   Z  0.00001
     Transition Moments   XX  0.00012  XY  0.00003  XZ -0.00000
     Transition Moments   YY -0.00024  YZ -0.00001  ZZ  0.00012
     Dipole Oscillator Strength                    0.0000000000
     Electric Quadrupole                           0.0000000000
     Magnetic Dipole                               0.0000000000
     Total Oscillator Strength                     0.0000000000

     Occ.   33  a   ---  Virt.   40  a        0.48481
     Occ.   33  a   ---  Virt.   43  a       -0.26402
     Occ.   34  a   ---  Virt.   41  a       -0.48230
     Occ.   34  a   ---  Virt.   42  a       -0.05073
     Occ.   34  a   ---  Virt.   44  a        0.26764
     Occ.   35  a   ---  Virt.   41  a        0.05081
     Occ.   35  a   ---  Virt.   42  a       -0.48222
     Occ.   35  a   ---  Virt.   45  a        0.26661
     Occ.   36  a   ---  Virt.   52  a        0.09294
     Occ.   36  a   ---  Virt.   53  a        0.10300
     Occ.   37  a   ---  Virt.   52  a        0.08336
     Occ.   37  a   ---  Virt.   54  a       -0.10403
     Occ.   38  a   ---  Virt.   52  a        0.06652
     Occ.   38  a   ---  Virt.   53  a       -0.08463
     Occ.   38  a   ---  Virt.   54  a        0.09179
  ----------------------------------------------------------------------------
  Root  37 singlet a              0.408730314 a.u.               11.1221 eV 
  ----------------------------------------------------------------------------
     Transition Moments    X -0.00001   Y  0.00003   Z  0.00003
     Transition Moments   XX -0.00018  XY  0.00024  XZ  0.00020
     Transition Moments   YY  0.00020  YZ -0.00009  ZZ -0.00002
     Dipole Oscillator Strength                    0.0000000005
     Electric Quadrupole                           0.0000000000
     Magnetic Dipole                               0.0000048109
     Total Oscillator Strength                     0.0000048113

     Occ.   25  a   ---  Virt.   39  a        0.07221
     Occ.   27  a   ---  Virt.   39  a        0.16972
     Occ.   31  a   ---  Virt.   40  a       -0.05248
     Occ.   33  a   ---  Virt.   40  a        0.18362
     Occ.   33  a   ---  Virt.   41  a       -0.13918
     Occ.   33  a   ---  Virt.   42  a        0.35617
     Occ.   34  a   ---  Virt.   40  a        0.10581
     Occ.   34  a   ---  Virt.   41  a       -0.43910
     Occ.   35  a   ---  Virt.   40  a       -0.37976
     Occ.   35  a   ---  Virt.   41  a       -0.06771
     Occ.   35  a   ---  Virt.   42  a        0.62102
     Occ.   37  a   ---  Virt.   48  a        0.08850
     Occ.   38  a   ---  Virt.   47  a       -0.08481
  ----------------------------------------------------------------------------
  Root  38 singlet a              0.408730469 a.u.               11.1221 eV 
  ----------------------------------------------------------------------------
     Transition Moments    X  0.00001   Y  0.00005   Z  0.00007
     Transition Moments   XX -0.00008  XY  0.00069  XZ  0.00051
     Transition Moments   YY -0.00009  YZ  0.00009  ZZ  0.00016
     Dipole Oscillator Strength                    0.0000000022
     Electric Quadrupole                           0.0000000000
     Magnetic Dipole                               0.0000048125
     Total Oscillator Strength                     0.0000048147

     Occ.   25  a   ---  Virt.   39  a       -0.07297
     Occ.   26  a   ---  Virt.   39  a        0.16779
     Occ.   32  a   ---  Virt.   40  a       -0.05180
     Occ.   33  a   ---  Virt.   40  a        0.05092
     Occ.   33  a   ---  Virt.   41  a        0.30100
     Occ.   33  a   ---  Virt.   42  a        0.29628
     Occ.   34  a   ---  Virt.   40  a       -0.31838
     Occ.   34  a   ---  Virt.   41  a        0.21110
     Occ.   34  a   ---  Virt.   42  a       -0.50162
     Occ.   35  a   ---  Virt.   40  a       -0.25541
     Occ.   35  a   ---  Virt.   41  a       -0.50105
     Occ.   35  a   ---  Virt.   42  a       -0.15970
     Occ.   36  a   ---  Virt.   48  a       -0.06458
     Occ.   37  a   ---  Virt.   47  a       -0.05294
     Occ.   37  a   ---  Virt.   48  a       -0.05179
     Occ.   38  a   ---  Virt.   45  a        0.05445
     Occ.   38  a   ---  Virt.   48  a        0.06874
  ----------------------------------------------------------------------------
  Root  39 singlet a              0.408730731 a.u.               11.1221 eV 
  ----------------------------------------------------------------------------
     Transition Moments    X  0.00000   Y  0.00003   Z -0.00001
     Transition Moments   XX  0.00008  XY  0.00016  XZ -0.00022
     Transition Moments   YY -0.00006  YZ -0.00004  ZZ -0.00002
     Dipole Oscillator Strength                    0.0000000003
     Electric Quadrupole                           0.0000000000
     Magnetic Dipole                               0.0000048111
     Total Oscillator Strength                     0.0000048115

     Occ.   25  a   ---  Virt.   39  a       -0.15331
     Occ.   26  a   ---  Virt.   39  a       -0.07653
     Occ.   27  a   ---  Virt.   39  a        0.06836
     Occ.   31  a   ---  Virt.   42  a       -0.05397
     Occ.   33  a   ---  Virt.   40  a       -0.72642
     Occ.   33  a   ---  Virt.   41  a        0.15932
     Occ.   33  a   ---  Virt.   42  a        0.07894
     Occ.   34  a   ---  Virt.   40  a       -0.16919
     Occ.   34  a   ---  Virt.   41  a       -0.53660
     Occ.   35  a   ---  Virt.   40  a       -0.07532
     Occ.   35  a   ---  Virt.   41  a        0.06361
     Occ.   35  a   ---  Virt.   42  a       -0.18561
     Occ.   36  a   ---  Virt.   47  a       -0.09769
     Occ.   37  a   ---  Virt.   45  a        0.05094
     Occ.   37  a   ---  Virt.   48  a       -0.05112
  ----------------------------------------------------------------------------
  Root  40 singlet a              0.410515802 a.u.               11.1707 eV 
  ----------------------------------------------------------------------------
     Transition Moments    X  0.00014   Y -0.00005   Z  0.00001
     Transition Moments   XX -3.01328  XY  0.00002  XZ -0.00014
     Transition Moments   YY  2.17507  YZ  0.00027  ZZ  0.83821
     Dipole Oscillator Strength                    0.0000000059
     Electric Quadrupole                           0.0000026734
     Magnetic Dipole                               0.0000000000
     Total Oscillator Strength                     0.0000026793

     Occ.   33  a   ---  Virt.   41  a        0.05790
     Occ.   33  a   ---  Virt.   42  a       -0.50311
     Occ.   34  a   ---  Virt.   41  a       -0.30083
     Occ.   34  a   ---  Virt.   42  a       -0.37506
     Occ.   35  a   ---  Virt.   40  a        0.50103
     Occ.   35  a   ---  Virt.   41  a       -0.37362
     Occ.   35  a   ---  Virt.   42  a        0.32134

              Target root =      1
          Target symmetry = none
      Ground state energy =   -390.621319287330
        Excitation energy =      0.308243805025
     Excited state energy =   -390.313075482305

  stored tddft:energy   -390.31307548230518     
 fn_civecs: ./adamant.civecs_singlet                                                                                                                                                                                                                                        
  open iostat                     0

  CI vectors are stored in ./adamant.civecs_singlet        

 Task  times  cpu:      121.4s     wall:      121.4s


                                NWChem Input Module
                                -------------------



  Limits (a.u.) specified for the density plot:
  ---------------------------------------------

        From        To      # of spacings
X    -9.44863     9.44863        50
Y    -9.44863     9.44863        50
Z    -9.44863     9.44863        50

  Total number of grid points =                132651

  1-st set of MOs      : ./adamant.movecs
  CIVECS file     : adamant.civecs_singlet
  Output is written to : root-1.cube
  Type of picture      : CHARGE DENSITY
  Format used          : Gaussian9x Cube
  Spin                 : TOTAL   
  The density is computed using all orbitals
  The density is computed on the specified grid
  Grid minima (bohr)  -9.448633 -9.448633 -9.448633
  Grid maxima (bohr)   9.448633  9.448633  9.448633
  Root:                     1
  *** tmom(2)***:    4.2454397249616929E-002
  *** tmom(3)***:    7.6373783310681204E-002
  *** tmom(4)***:    9.0916036036210679E-002
  max element    1.4781130874714533E-002

  Tol_rho              =                    0.10000E-39
  Sum of elements      =                        0.00000
  Integration volume   =                        0.05399
  Integrated Charge    =                        0.00000

 Task  times  cpu:        0.2s     wall:        0.2s


                                NWChem Input Module
                                -------------------


 Summary of allocated global arrays
-----------------------------------
  No active global arrays


MA_summarize_allocated_blocks: starting scan ...
MA_summarize_allocated_blocks: scan completed: 0 heap blocks, 0 stack blocks
MA usage statistics:

	allocation statistics:
					      heap	     stack
					      ----	     -----
	current number of blocks	         0	         0
	maximum number of blocks	        21	        59
	current total bytes		         0	         0
	maximum total bytes		  44910528	  22521768
	maximum total K-bytes		     44911	     22522
	maximum total M-bytes		        45	        23


                                     CITATION
                                     --------
                Please cite the following reference when publishing
                           results obtained with NWChem:

          E. Apra, E. J. Bylaska, W. A. de Jong, N. Govind, K. Kowalski,
       T. P. Straatsma, M. Valiev, H. J. J. van Dam, Y. Alexeev, J. Anchell,
       V. Anisimov, F. W. Aquino, R. Atta-Fynn, J. Autschbach, N. P. Bauman,
     J. C. Becca, D. E. Bernholdt, K. Bhaskaran-Nair, S. Bogatko, P. Borowski,
         J. Boschen, J. Brabec, A. Bruner, E. Cauet, Y. Chen, G. N. Chuev,
      C. J. Cramer, J. Daily, M. J. O. Deegan, T. H. Dunning Jr., M. Dupuis,
   K. G. Dyall, G. I. Fann, S. A. Fischer, A. Fonari, H. Fruchtl, L. Gagliardi,
      J. Garza, N. Gawande, S. Ghosh, K. Glaesemann, A. W. Gotz, J. Hammond,
       V. Helms, E. D. Hermes, K. Hirao, S. Hirata, M. Jacquelin, L. Jensen,
   B. G. Johnson, H. Jonsson, R. A. Kendall, M. Klemm, R. Kobayashi, V. Konkov,
      S. Krishnamoorthy, M. Krishnan, Z. Lin, R. D. Lins, R. J. Littlefield,
      A. J. Logsdail, K. Lopata, W. Ma, A. V. Marenich, J. Martin del Campo,
   D. Mejia-Rodriguez, J. E. Moore, J. M. Mullin, T. Nakajima, D. R. Nascimento,
    J. A. Nichols, P. J. Nichols, J. Nieplocha, A. Otero-de-la-Roza, B. Palmer,
    A. Panyala, T. Pirojsirikul, B. Peng, R. Peverati, J. Pittner, L. Pollack,
   R. M. Richard, P. Sadayappan, G. C. Schatz, W. A. Shelton, D. W. Silverstein,
   D. M. A. Smith, T. A. Soares, D. Song, M. Swart, H. L. Taylor, G. S. Thomas,
            V. Tipparaju, D. G. Truhlar, K. Tsemekhman, T. Van Voorhis,
      A. Vazquez-Mayagoitia, P. Verma, O. Villa, A. Vishnu, K. D. Vogiatzis,
        D. Wang, J. H. Weare, M. J. Williamson, T. L. Windus, K. Wolinski,
        A. T. Wong, Q. Wu, C. Yang, Q. Yu, M. Zacharias, Z. Zhang, Y. Zhao,
                                and R. J. Harrison
                        "NWChem: Past, present, and future
                         J. Chem. Phys. 152, 184102 (2020)
                               doi:10.1063/5.0004997

                                      AUTHORS
                                      -------
  E. Apra, E. J. Bylaska, N. Govind, K. Kowalski, M. Valiev, D. Mejia-Rodriguez,
       A. Kunitsa, N. P. Bauman, A. Panyala, W. A. de Jong, T. P. Straatsma,
   H. J. J. van Dam, D. Wang, T. L. Windus, J. Hammond, J. Autschbach, A. Woods,
    K. Bhaskaran-Nair, J. Brabec, K. Lopata, S. A. Fischer, S. Krishnamoorthy,
     M. Jacquelin, W. Ma, M. Klemm, O. Villa, Y. Chen, V. Anisimov, F. Aquino,
     S. Hirata, M. T. Hackler, E. Hermes, L. Jensen, J. E. Moore, J. C. Becca,
      V. Konjkov, T. Risthaus, M. Malagoli, A. Marenich, A. Otero-de-la-Roza,
        J. Mullin, P. Nichols, R. Peverati, J. Pittner, Y. Zhao, P.-D. Fan,
        A. Fonari, M. J. Williamson, R. J. Harrison, J. R. Rehr, M. Dupuis,
     D. Silverstein, D. M. A. Smith, J. Nieplocha, V. Tipparaju, M. Krishnan,
     B. E. Van Kuiken, A. Vazquez-Mayagoitia, M. Swart, Q. Wu, T. Van Voorhis,
     A. A. Auer, M. Nooijen, L. D. Crosby, E. Brown, G. Cisneros, G. I. Fann,
   H. Fruchtl, J. Garza, K. Hirao, R. A. Kendall, J. A. Nichols, K. Tsemekhman,
    K. Wolinski, J. Anchell, D. E. Bernholdt, P. Borowski, T. Clark, D. Clerc,
   H. Dachsel, M. J. O. Deegan, K. Dyall, D. Elwood, E. Glendening, M. Gutowski,
   A. C. Hess, J. Jaffe, B. G. Johnson, J. Ju, R. Kobayashi, R. Kutteh, Z. Lin,
   R. Littlefield, X. Long, B. Meng, T. Nakajima, S. Niu, L. Pollack, M. Rosing,
   K. Glaesemann, G. Sandrone, M. Stave, H. Taylor, G. Thomas, J. H. van Lenthe,
                               A. T. Wong, Z. Zhang.

 Total times  cpu:      124.0s     wall:      124.0s
