 argument  1 = input.nw
  NWChem w/ OpenMP: maximum threads =    1



============================== echo of input deck ==============================
echo
start adamant
geometry  units angstroms noautosym  noautoz
C         -0.19305        1.82219       -0.88212
C          0.69674        0.94007        0.00000
C         -0.19305        0.05795        0.88212
H          1.35905        0.32766       -0.61241
H          1.35905        1.55248        0.61241
C         -1.07517        0.94007        1.77192
C         -1.95729        1.82219        0.88212
H         -1.68758        0.32766        2.43422
H         -0.46276        1.55248        2.43422
C         -1.07517        2.71199        0.00000
H         -1.68758        3.37430       -0.61241
H         -0.46276        3.37430        0.61241
C         -1.07517        0.94007       -1.77192
H          0.43561        2.45085       -1.51078
C         -1.07517       -0.83185        0.00000
H          0.43561       -0.57071        1.51078
C         -1.95729        0.05795       -0.88212
H         -0.46276       -1.49415       -0.61241
H         -1.68758       -1.49415        0.61241
H         -2.58595       -0.57071       -1.51078
C         -2.84709        0.94007        0.00000
H         -1.68758        1.55248       -2.43422
H         -0.46276        0.32766       -2.43422
H         -3.50940        1.55248       -0.61241
H         -2.58595        2.45085        1.51078
H         -3.50940        0.32766        0.61241
 symmetry c1
end

basis
 *  library 6-31G
end

dft
 xc xcamb88 1.00 lyp 0.81 vwn_5 0.19 hfexch 1.00
 cam 0.33 cam_alpha 0.19 cam_beta 0.46
 mult 1
end

tddft
 rpa
 nroots 40
 singlet
 notriplet
 civecs
end

task tddft energy


dplot
 civecs adamant.civecs_singlet
 root 1
 LimitXYZ
  -5.0 5.0 50
  -5.0 5.0 50
  -5.0 5.0 50
   gaussian
   output root-1.cube
end
task dplot

================================================================================


                                         
                                         


             Northwest Computational Chemistry Package (NWChem) 7.2.1
             --------------------------------------------------------


                    Environmental Molecular Sciences Laboratory
                       Pacific Northwest National Laboratory
                                Richland, WA 99352

                              Copyright (c) 1994-2022
                       Pacific Northwest National Laboratory
                            Battelle Memorial Institute

             NWChem is an open-source computational chemistry package
                        distributed under the terms of the
                      Educational Community License (ECL) 2.0
             A copy of the license is included with this distribution
                              in the LICENSE.TXT file

                                  ACKNOWLEDGMENT
                                  --------------

            This software and its documentation were developed at the
            EMSL at Pacific Northwest National Laboratory, a multiprogram
            national laboratory, operated for the U.S. Department of Energy
            by Battelle under Contract Number DE-AC05-76RL01830. Support
            for this work was provided by the Department of Energy Office
            of Biological and Environmental Research, Office of Basic
            Energy Sciences, and the Office of Advanced Scientific Computing.


           Job information
           ---------------

    hostname        = cpn-f13-37.core.ccr.buffalo.edu
    program         = nwchem
    date            = Sun Mar 24 11:17:45 2024

    compiled        = Wed_Jan_17_15:19:23_2024
    source          = /projects/academic/cyberwksp21/SOFTWARE_NEW_ENV/nwchem
    nwchem branch   = 7.2.1
    nwchem revision = v7.2.0-beta1-968-g8bfd0073a6
    ga revision     = 5.8.0
    use scalapack   = T
    input           = input.nw
    prefix          = adamant.
    data base       = ./adamant.db
    status          = startup
    nproc           =       11
    time left       =     -1s



           Memory information
           ------------------

    heap     =     26214396 doubles =      200.0 Mbytes
    stack    =     26214401 doubles =      200.0 Mbytes
    global   =     52428800 doubles =      400.0 Mbytes (distinct from heap & stack)
    total    =    104857597 doubles =      800.0 Mbytes
    verify   = yes
    hardfail = no 


           Directory information
           ---------------------

  0 permanent = .
  0 scratch   = .




                                NWChem Input Module
                                -------------------



 Scaling coordinates for geometry "geometry" by  1.889725989
 (inverse scale =  0.529177249)



                             Geometry "geometry" -> ""
                             -------------------------

 Output coordinates in angstroms (scale by  1.889725989 to convert to a.u.)

  No.       Tag          Charge          X              Y              Z
 ---- ---------------- ---------- -------------- -------------- --------------
    1 C                    6.0000     0.88212105     0.88211974    -0.88212000
    2 C                    6.0000     1.77191105    -0.00000026    -0.00000000
    3 C                    6.0000     0.88212105    -0.88212026     0.88212000
    4 H                    1.0000     2.43422105    -0.61241026    -0.61241000
    5 H                    1.0000     2.43422105     0.61240974     0.61241000
    6 C                    6.0000     0.00000105    -0.00000026     1.77192000
    7 C                    6.0000    -0.88211895     0.88211974     0.88212000
    8 H                    1.0000    -0.61240895    -0.61241026     2.43422000
    9 H                    1.0000     0.61241105     0.61240974     2.43422000
   10 C                    6.0000     0.00000105     1.77191974    -0.00000000
   11 H                    1.0000    -0.61240895     2.43422974    -0.61241000
   12 H                    1.0000     0.61241105     2.43422974     0.61241000
   13 C                    6.0000     0.00000105    -0.00000026    -1.77192000
   14 H                    1.0000     1.51078105     1.51077974    -1.51078000
   15 C                    6.0000     0.00000105    -1.77192026    -0.00000000
   16 H                    1.0000     1.51078105    -1.51078026     1.51078000
   17 C                    6.0000    -0.88211895    -0.88212026    -0.88212000
   18 H                    1.0000     0.61241105    -2.43422026    -0.61241000
   19 H                    1.0000    -0.61240895    -2.43422026     0.61241000
   20 H                    1.0000    -1.51077895    -1.51078026    -1.51078000
   21 C                    6.0000    -1.77191895    -0.00000026    -0.00000000
   22 H                    1.0000    -0.61240895     0.61240974    -2.43422000
   23 H                    1.0000     0.61241105    -0.61241026    -2.43422000
   24 H                    1.0000    -2.43422895     0.61240974    -0.61241000
   25 H                    1.0000    -1.51077895     1.51077974     1.51078000
   26 H                    1.0000    -2.43422895    -0.61241026     0.61241000

      Atomic Mass 
      ----------- 

      C                 12.000000
      H                  1.007825


 Effective nuclear repulsion energy (a.u.)     599.1399474866

            Nuclear Dipole moment (a.u.) 
            ----------------------------
        X                 Y               Z
 ---------------- ---------------- ----------------
     0.0000000000    -0.0000000000     0.0000000000


            XYZ format geometry
            -------------------
    26
 geometry
 C                     0.88212105     0.88211974    -0.88212000
 C                     1.77191105    -0.00000026    -0.00000000
 C                     0.88212105    -0.88212026     0.88212000
 H                     2.43422105    -0.61241026    -0.61241000
 H                     2.43422105     0.61240974     0.61241000
 C                     0.00000105    -0.00000026     1.77192000
 C                    -0.88211895     0.88211974     0.88212000
 H                    -0.61240895    -0.61241026     2.43422000
 H                     0.61241105     0.61240974     2.43422000
 C                     0.00000105     1.77191974    -0.00000000
 H                    -0.61240895     2.43422974    -0.61241000
 H                     0.61241105     2.43422974     0.61241000
 C                     0.00000105    -0.00000026    -1.77192000
 H                     1.51078105     1.51077974    -1.51078000
 C                     0.00000105    -1.77192026    -0.00000000
 H                     1.51078105    -1.51078026     1.51078000
 C                    -0.88211895    -0.88212026    -0.88212000
 H                     0.61241105    -2.43422026    -0.61241000
 H                    -0.61240895    -2.43422026     0.61241000
 H                    -1.51077895    -1.51078026    -1.51078000
 C                    -1.77191895    -0.00000026    -0.00000000
 H                    -0.61240895     0.61240974    -2.43422000
 H                     0.61241105    -0.61241026    -2.43422000
 H                    -2.43422895     0.61240974    -0.61241000
 H                    -1.51077895     1.51077974     1.51078000
 H                    -2.43422895    -0.61241026     0.61241000

 ==============================================================================
                                internuclear distances
 ------------------------------------------------------------------------------
       center one      |      center two      | atomic units |  angstroms
 ------------------------------------------------------------------------------
    2 C                |   1 C                |     2.89566  |     1.53232
    3 C                |   2 C                |     2.89566  |     1.53232
    4 H                |   2 C                |     2.06036  |     1.09030
    5 H                |   2 C                |     2.06036  |     1.09030
    6 C                |   3 C                |     2.89567  |     1.53232
    7 C                |   6 C                |     2.89567  |     1.53232
    8 H                |   6 C                |     2.06035  |     1.09029
    9 H                |   6 C                |     2.06035  |     1.09029
   10 C                |   1 C                |     2.89567  |     1.53232
   10 C                |   7 C                |     2.89567  |     1.53232
   11 H                |  10 C                |     2.06036  |     1.09030
   12 H                |  10 C                |     2.06036  |     1.09030
   13 C                |   1 C                |     2.89567  |     1.53232
   14 H                |   1 C                |     2.05767  |     1.08887
   15 C                |   3 C                |     2.89567  |     1.53232
   16 H                |   3 C                |     2.05767  |     1.08887
   17 C                |  13 C                |     2.89567  |     1.53232
   17 C                |  15 C                |     2.89567  |     1.53232
   18 H                |  15 C                |     2.06035  |     1.09029
   19 H                |  15 C                |     2.06035  |     1.09029
   20 H                |  17 C                |     2.05767  |     1.08887
   21 C                |   7 C                |     2.89567  |     1.53232
   21 C                |  17 C                |     2.89567  |     1.53232
   22 H                |  13 C                |     2.06035  |     1.09029
   23 H                |  13 C                |     2.06035  |     1.09029
   24 H                |  21 C                |     2.06036  |     1.09030
   25 H                |   7 C                |     2.05767  |     1.08887
   26 H                |  21 C                |     2.06036  |     1.09030
 ------------------------------------------------------------------------------
                         number of included internuclear distances:         28
 ==============================================================================



 ==============================================================================
                                 internuclear angles
 ------------------------------------------------------------------------------
        center 1       |       center 2       |       center 3       |  degrees
 ------------------------------------------------------------------------------
    2 C                |   1 C                |  10 C                |   109.70
    2 C                |   1 C                |  13 C                |   109.70
    2 C                |   1 C                |  14 H                |   109.24
   10 C                |   1 C                |  13 C                |   109.70
   10 C                |   1 C                |  14 H                |   109.24
   13 C                |   1 C                |  14 H                |   109.24
    1 C                |   2 C                |   3 C                |   109.00
    1 C                |   2 C                |   4 H                |   110.66
    1 C                |   2 C                |   5 H                |   110.66
    3 C                |   2 C                |   4 H                |   110.66
    3 C                |   2 C                |   5 H                |   110.66
    4 H                |   2 C                |   5 H                |   105.19
    2 C                |   3 C                |   6 C                |   109.70
    2 C                |   3 C                |  15 C                |   109.70
    2 C                |   3 C                |  16 H                |   109.24
    6 C                |   3 C                |  15 C                |   109.70
    6 C                |   3 C                |  16 H                |   109.24
   15 C                |   3 C                |  16 H                |   109.24
    3 C                |   6 C                |   7 C                |   109.00
    3 C                |   6 C                |   8 H                |   110.65
    3 C                |   6 C                |   9 H                |   110.65
    7 C                |   6 C                |   8 H                |   110.65
    7 C                |   6 C                |   9 H                |   110.65
    8 H                |   6 C                |   9 H                |   105.19
    6 C                |   7 C                |  10 C                |   109.70
    6 C                |   7 C                |  21 C                |   109.70
    6 C                |   7 C                |  25 H                |   109.24
   10 C                |   7 C                |  21 C                |   109.70
   10 C                |   7 C                |  25 H                |   109.24
   21 C                |   7 C                |  25 H                |   109.24
    1 C                |  10 C                |   7 C                |   109.00
    1 C                |  10 C                |  11 H                |   110.66
    1 C                |  10 C                |  12 H                |   110.66
    7 C                |  10 C                |  11 H                |   110.66
    7 C                |  10 C                |  12 H                |   110.66
   11 H                |  10 C                |  12 H                |   105.19
    1 C                |  13 C                |  17 C                |   109.00
    1 C                |  13 C                |  22 H                |   110.65
    1 C                |  13 C                |  23 H                |   110.65
   17 C                |  13 C                |  22 H                |   110.65
   17 C                |  13 C                |  23 H                |   110.65
   22 H                |  13 C                |  23 H                |   105.19
    3 C                |  15 C                |  17 C                |   109.00
    3 C                |  15 C                |  18 H                |   110.65
    3 C                |  15 C                |  19 H                |   110.65
   17 C                |  15 C                |  18 H                |   110.65
   17 C                |  15 C                |  19 H                |   110.65
   18 H                |  15 C                |  19 H                |   105.19
   13 C                |  17 C                |  15 C                |   109.70
   13 C                |  17 C                |  20 H                |   109.24
   13 C                |  17 C                |  21 C                |   109.70
   15 C                |  17 C                |  20 H                |   109.24
   15 C                |  17 C                |  21 C                |   109.70
   20 H                |  17 C                |  21 C                |   109.24
    7 C                |  21 C                |  17 C                |   109.00
    7 C                |  21 C                |  24 H                |   110.66
    7 C                |  21 C                |  26 H                |   110.66
   17 C                |  21 C                |  24 H                |   110.66
   17 C                |  21 C                |  26 H                |   110.66
   24 H                |  21 C                |  26 H                |   105.19
 ------------------------------------------------------------------------------
                            number of included internuclear angles:         60
 ==============================================================================





 Summary of "ao basis" -> "" (cartesian)
 ------------------------------------------------------------------------------
       Tag                 Description            Shells   Functions and Types
 ---------------- ------------------------------  ------  ---------------------
 *                           6-31G                    on all atoms 


 tddft_input: filename not found; default name will be used

                                 NWChem DFT Module
                                 -----------------


                      Basis "ao basis" -> "ao basis" (cartesian)
                      -----
  C (Carbon)
  ----------
            Exponent  Coefficients 
       -------------- ---------------------------------------------------------
  1 S  3.04752490E+03  0.001835
  1 S  4.57369510E+02  0.014037
  1 S  1.03948690E+02  0.068843
  1 S  2.92101550E+01  0.232184
  1 S  9.28666300E+00  0.467941
  1 S  3.16392700E+00  0.362312

  2 S  7.86827240E+00 -0.119332
  2 S  1.88128850E+00 -0.160854
  2 S  5.44249300E-01  1.143456

  3 P  7.86827240E+00  0.068999
  3 P  1.88128850E+00  0.316424
  3 P  5.44249300E-01  0.744308

  4 S  1.68714400E-01  1.000000

  5 P  1.68714400E-01  1.000000

  H (Hydrogen)
  ------------
            Exponent  Coefficients 
       -------------- ---------------------------------------------------------
  1 S  1.87311370E+01  0.033495
  1 S  2.82539370E+00  0.234727
  1 S  6.40121700E-01  0.813757

  2 S  1.61277800E-01  1.000000



 Summary of "ao basis" -> "ao basis" (cartesian)
 ------------------------------------------------------------------------------
       Tag                 Description            Shells   Functions and Types
 ---------------- ------------------------------  ------  ---------------------
 C                           6-31G                   5        9   3s2p
 H                           6-31G                   2        2   2s




 Summary of "ao basis" -> "ao basis" (cartesian)
 ------------------------------------------------------------------------------
       Tag                 Description            Shells   Functions and Types
 ---------------- ------------------------------  ------  ---------------------
 C                           6-31G                   5        9   3s2p
 H                           6-31G                   2        2   2s


  int_init: cando_txs set to always be  F
  Caching 1-el integrals 

            General Information
            -------------------
          SCF calculation type: DFT
          Wavefunction type:  closed shell.
          No. of atoms     :    26
          No. of electrons :    76
           Alpha electrons :    38
            Beta electrons :    38
          Charge           :     0
          Spin multiplicity:     1
          Use of symmetry is: off; symmetry adaption is: off
          Maximum number of iterations:  50
          AO basis - number of functions:   122
                     number of shells:    82
          Convergence on energy requested:  1.00D-06
          Convergence on density requested:  1.00D-05
          Convergence on gradient requested:  5.00D-04

              XC Information
              --------------
                     Hartree-Fock (Exact) Exchange  1.000          
                   CAM-Becke88 Exchange Functional  1.000          
                      VWN V Correlation Functional  0.190 local    
              Lee-Yang-Parr Correlation Functional  0.810          

           Range-Separation Parameters        
           ---------------------------
           Alpha           :  0.19
           Beta            :  0.46
           Gamma           :  0.33
           Short-Range HF  :     F

             Grid Information
             ----------------
          Grid used for XC integration:  medium    
          Radial quadrature: Mura-Knowles        
          Angular quadrature: Lebedev. 
          Tag              B.-S. Rad. Rad. Pts. Rad. Cut. Ang. Pts.
          ---              ---------- --------- --------- ---------
          C                   0.70       49          11.0       434
          H                   0.35       45          12.0       434
          Grid pruning is: on 
          Number of quadrature shells:  1210
          Spatial weights used:  Erf1

          Convergence Information
          -----------------------
          Convergence aids based upon iterative change in 
          total energy or number of iterations. 
          Levelshifting, if invoked, occurs when the 
          HOMO/LUMO gap drops below (HL_TOL):  1.00D-02
          DIIS, if invoked, will attempt to extrapolate 
          using up to (NFOCK): 10 stored Fock matrices.

                    Damping( 0%)  Levelshifting(0.5)       DIIS
                  --------------- ------------------- ---------------
          dE  on:    start            ASAP                start   
          dE off:    2 iters         50 iters            50 iters 


      Screening Tolerance Information
      -------------------------------
          Density screening/tol_rho:  1.00D-10
          AO Gaussian exp screening on grid/accAOfunc:  14
          CD Gaussian exp screening on grid/accCDfunc:  20
          XC Gaussian exp screening on grid/accXCfunc:  20
          Schwarz screening/accCoul:  1.00D-08

  
  CAM type calculations without CDFIT are
  only available with the direct option.
  Forcing Direct SCF
  

      Superposition of Atomic Density Guess
      -------------------------------------

 Sum of atomic energies:        -384.57426211

      Non-variational initial energy
      ------------------------------

 Total energy =    -392.757521
 1-e energy   =   -1704.959901
 2-e energy   =     713.062433
 HOMO         =      -0.302107
 LUMO         =       0.105158

   Time after variat. SCF:      1.0
   Time prior to 1st pass:      1.0
  avail0,avail1,avail0-avail1                197576               197576                    0
  avail0,avail1,avail0-avail1                197576               197576                    0
  avail0,avail1,avail0-avail1                197576               197576                    0
  avail0,avail1,avail0-avail1                197576               197576                    0

 Grid_pts file          = ./adamant.gridpts.00
 Record size in doubles =  12289        No. of grid_pts per rec  =   3070
 Max. records in memory =     19        Max. recs in file   =      1500

 Grid integrated density:      76.002712832265
 Requested integration accuracy:   0.10E-05

           Memory utilization after 1st SCF pass: 
           Heap Space remaining (MW):       25.98            25979556
          Stack Space remaining (MW):       26.21            26212828

   convergence    iter        energy       DeltaE   RMS-Dens  Diis-err    time
 ---------------- ----- ----------------- --------- --------- ---------  ------
 d= 0,ls=0.0,diis     1   -390.2876489249 -9.89D+02  7.33D-03  7.65D-01     3.5
 Grid integrated density:      76.002249711713
 Requested integration accuracy:   0.10E-05
 d= 0,ls=0.0,diis     2   -390.3851310258 -9.75D-02  1.45D-03  1.58D-02     5.9
 Grid integrated density:      76.002269737497
 Requested integration accuracy:   0.10E-05
 d= 0,ls=0.0,diis     3   -390.3868564605 -1.73D-03  6.28D-04  6.83D-03     8.2
 Grid integrated density:      76.002269676443
 Requested integration accuracy:   0.10E-05
 d= 0,ls=0.0,diis     4   -390.3876851825 -8.29D-04  2.22D-04  3.84D-04    10.7
 Grid integrated density:      76.002263866110
 Requested integration accuracy:   0.10E-05
 d= 0,ls=0.0,diis     5   -390.3877361074 -5.09D-05  3.85D-05  1.52D-05    13.2
 Grid integrated density:      76.002264523673
 Requested integration accuracy:   0.10E-05
  Resetting Diis
 d= 0,ls=0.0,diis     6   -390.3877380141 -1.91D-06  7.48D-06  1.79D-06    15.6
 Grid integrated density:      76.002264720948
 Requested integration accuracy:   0.10E-05
 d= 0,ls=0.0,diis     7   -390.3877382431 -2.29D-07  1.19D-06  1.63D-09    18.0


         Total DFT energy =     -390.387738243112
      One electron energy =    -1714.329066523664
           Coulomb energy =      785.052792907514
    Exchange-Corr. energy =      -60.251412113554
 Nuclear repulsion energy =      599.139947486592

 Numeric. integr. density =       76.002264720948

     Total iterative time =     17.0s



                       DFT Final Molecular Orbital Analysis
                       ------------------------------------

 Vector    1  Occ=2.000000D+00  E=-1.024233D+01
              MO Center= -8.2D-01,  3.3D-01,  3.0D-01, r^2= 1.5D+00
   Bfn.  Coefficient  Atom+Function         Bfn.  Coefficient  Atom+Function  
  ----- ------------  ---------------      ----- ------------  ---------------
    41      0.809980   7 C  s                89     -0.548567  17 C  s         
     1     -0.154744   1 C  s                19     -0.104739   3 C  s         
    46     -0.046431   7 C  s                42      0.035628   7 C  s         
    94      0.031462  17 C  s         

 Vector    2  Occ=2.000000D+00  E=-1.024233D+01
              MO Center= -2.5D-03, -1.4D-03, -6.1D-01, r^2= 2.0D+00
   Bfn.  Coefficient  Atom+Function         Bfn.  Coefficient  Atom+Function  
  ----- ------------  ---------------      ----- ------------  ---------------
     1      0.645922   1 C  s                89     -0.647616  17 C  s         
    19      0.278043   3 C  s                41     -0.279248   7 C  s         
     6     -0.037048   1 C  s                94      0.037117  17 C  s         
     2      0.028418   1 C  s                90     -0.028484  17 C  s         

 Vector    3  Occ=2.000000D+00  E=-1.024233D+01
              MO Center=  8.2D-01, -3.2D-01,  3.0D-01, r^2= 1.5D+00
   Bfn.  Coefficient  Atom+Function         Bfn.  Coefficient  Atom+Function  
  ----- ------------  ---------------      ----- ------------  ---------------
    19      0.808924   3 C  s                 1     -0.549745   1 C  s         
    89     -0.155434  17 C  s                41     -0.105694   7 C  s         
    24     -0.046390   3 C  s                20      0.035587   3 C  s         
     6      0.031510   1 C  s         

 Vector    4  Occ=2.000000D+00  E=-1.024224D+01
              MO Center=  3.3D-03, -1.3D-03,  1.5D-05, r^2= 2.4D+00
   Bfn.  Coefficient  Atom+Function         Bfn.  Coefficient  Atom+Function  
  ----- ------------  ---------------      ----- ------------  ---------------
     1      0.498150   1 C  s                19      0.498896   3 C  s         
    41      0.496302   7 C  s                89      0.497034  17 C  s         

 Vector    5  Occ=2.000000D+00  E=-1.023360D+01
              MO Center= -1.6D-02,  1.7D-02,  7.7D-07, r^2= 3.2D+00
   Bfn.  Coefficient  Atom+Function         Bfn.  Coefficient  Atom+Function  
  ----- ------------  ---------------      ----- ------------  ---------------
   104      0.540281  21 C  s                10      0.531936   2 C  s         
    54     -0.453615  10 C  s                78     -0.442917  15 C  s         
    32     -0.086079   6 C  s                67     -0.086076  13 C  s         
   109     -0.025973  21 C  s                15     -0.025622   2 C  s         

 Vector    6  Occ=2.000000D+00  E=-1.023360D+01
              MO Center= -2.5D-03,  1.1D-02,  3.4D-05, r^2= 3.2D+00
   Bfn.  Coefficient  Atom+Function         Bfn.  Coefficient  Atom+Function  
  ----- ------------  ---------------      ----- ------------  ---------------
    32      0.567134   6 C  s                67      0.567118  13 C  s         
    54     -0.364776  10 C  s                78     -0.356087  15 C  s         
   104     -0.212000  21 C  s                10     -0.208693   2 C  s         
    37     -0.027327   6 C  s                72     -0.027326  13 C  s         

 Vector    7  Occ=2.000000D+00  E=-1.023355D+01
              MO Center=  1.0D-02,  1.9D-04,  3.4D-06, r^2= 3.2D+00
   Bfn.  Coefficient  Atom+Function         Bfn.  Coefficient  Atom+Function  
  ----- ------------  ---------------      ----- ------------  ---------------
    10      0.705853   2 C  s               104     -0.701843  21 C  s         
    15     -0.029808   2 C  s               109      0.029550  21 C  s         
    11      0.028155   2 C  s               105     -0.027961  21 C  s         

 Vector    8  Occ=2.000000D+00  E=-1.023355D+01
              MO Center=  3.0D-04, -1.6D-02,  3.2D-06, r^2= 3.2D+00
   Bfn.  Coefficient  Atom+Function         Bfn.  Coefficient  Atom+Function  
  ----- ------------  ---------------      ----- ------------  ---------------
    78     -0.706985  15 C  s                54      0.700656  10 C  s         
    83      0.029879  15 C  s                59     -0.029476  10 C  s         
    79     -0.028210  15 C  s                55      0.027904  10 C  s         

 Vector    9  Occ=2.000000D+00  E=-1.023355D+01
              MO Center=  1.1D-06, -2.9D-07, -2.5D-05, r^2= 3.2D+00
   Bfn.  Coefficient  Atom+Function         Bfn.  Coefficient  Atom+Function  
  ----- ------------  ---------------      ----- ------------  ---------------
    32      0.703906   6 C  s                67     -0.703916  13 C  s         
    37     -0.029681   6 C  s                72      0.029682  13 C  s         
    33      0.028060   6 C  s                68     -0.028061  13 C  s         

 Vector   10  Occ=2.000000D+00  E=-1.023349D+01
              MO Center=  8.1D-03, -1.3D-02, -1.6D-05, r^2= 3.2D+00
   Bfn.  Coefficient  Atom+Function         Bfn.  Coefficient  Atom+Function  
  ----- ------------  ---------------      ----- ------------  ---------------
    78      0.410112  15 C  s                10      0.407558   2 C  s         
    32      0.407964   6 C  s                67      0.407975  13 C  s         
    54      0.401421  10 C  s               104      0.401963  21 C  s         

 Vector   11  Occ=2.000000D+00  E=-9.540683D-01
              MO Center=  1.3D-05, -2.8D-06,  8.4D-09, r^2= 2.9D+00
   Bfn.  Coefficient  Atom+Function         Bfn.  Coefficient  Atom+Function  
  ----- ------------  ---------------      ----- ------------  ---------------
     2      0.135514   1 C  s                20      0.135514   3 C  s         
    42      0.135513   7 C  s                90      0.135513  17 C  s         
    11      0.116009   2 C  s                33      0.116007   6 C  s         
    55      0.116007  10 C  s                68      0.116007  13 C  s         
    79      0.116007  15 C  s               105      0.116006  21 C  s         

 Vector   12  Occ=2.000000D+00  E=-8.469440D-01
              MO Center=  1.7D-01,  2.7D-01, -8.6D-02, r^2= 3.6D+00
   Bfn.  Coefficient  Atom+Function         Bfn.  Coefficient  Atom+Function  
  ----- ------------  ---------------      ----- ------------  ---------------
     2      0.210407   1 C  s                 6      0.191036   1 C  s         
    33     -0.178029   6 C  s                68      0.178028  13 C  s         
    37     -0.156030   6 C  s                72      0.156029  13 C  s         
    42     -0.138355   7 C  s                46     -0.125618   7 C  s         
     1     -0.114731   1 C  s                32      0.096138   6 C  s         

 Vector   13  Occ=2.000000D+00  E=-8.469440D-01
              MO Center=  4.5D-02, -2.7D-01,  9.8D-02, r^2= 3.7D+00
   Bfn.  Coefficient  Atom+Function         Bfn.  Coefficient  Atom+Function  
  ----- ------------  ---------------      ----- ------------  ---------------
    20      0.196603   3 C  s                11      0.186506   2 C  s         
   105     -0.186505  21 C  s                24      0.178503   3 C  s         
    15      0.163459   2 C  s               109     -0.163459  21 C  s         
    90     -0.156086  17 C  s                94     -0.141716  17 C  s         
    19     -0.107204   3 C  s                10     -0.100715   2 C  s         

 Vector   14  Occ=2.000000D+00  E=-8.469436D-01
              MO Center= -2.1D-01, -4.0D-03, -1.2D-02, r^2= 3.7D+00
   Bfn.  Coefficient  Atom+Function         Bfn.  Coefficient  Atom+Function  
  ----- ------------  ---------------      ----- ------------  ---------------
    55      0.197767  10 C  s                79     -0.197768  15 C  s         
    59      0.173329  10 C  s                83     -0.173330  15 C  s         
    90     -0.171554  17 C  s                42      0.166733   7 C  s         
    94     -0.155760  17 C  s                46      0.151383   7 C  s         
    54     -0.106797  10 C  s                78      0.106797  15 C  s         

 Vector   15  Occ=2.000000D+00  E=-7.415045D-01
              MO Center= -1.3D-07,  1.2D-07,  1.7D-08, r^2= 4.7D+00
   Bfn.  Coefficient  Atom+Function         Bfn.  Coefficient  Atom+Function  
  ----- ------------  ---------------      ----- ------------  ---------------
    37      0.223411   6 C  s                72      0.223411  13 C  s         
    33      0.215561   6 C  s                68      0.215561  13 C  s         
    59     -0.153962  10 C  s                83     -0.153961  15 C  s         
    55     -0.148552  10 C  s                79     -0.148552  15 C  s         
    32     -0.114132   6 C  s                67     -0.114132  13 C  s         

 Vector   16  Occ=2.000000D+00  E=-7.415039D-01
              MO Center= -1.3D-05,  2.3D-07,  9.8D-10, r^2= 4.7D+00
   Bfn.  Coefficient  Atom+Function         Bfn.  Coefficient  Atom+Function  
  ----- ------------  ---------------      ----- ------------  ---------------
    15      0.217875   2 C  s               109      0.217877  21 C  s         
    11      0.210219   2 C  s               105      0.210221  21 C  s         
    59     -0.169084  10 C  s                83     -0.169083  15 C  s         
    55     -0.163142  10 C  s                79     -0.163142  15 C  s         
    10     -0.111304   2 C  s               104     -0.111305  21 C  s         

 Vector   17  Occ=2.000000D+00  E=-6.535246D-01
              MO Center=  3.7D-01,  2.8D-02, -2.0D-02, r^2= 4.6D+00
   Bfn.  Coefficient  Atom+Function         Bfn.  Coefficient  Atom+Function  
  ----- ------------  ---------------      ----- ------------  ---------------
     6      0.214966   1 C  s                24     -0.201939   3 C  s         
     2      0.180165   1 C  s                20     -0.169247   3 C  s         
    37      0.147936   6 C  s                72     -0.147935  13 C  s         
    13      0.119539   2 C  py               33      0.114967   6 C  s         
    68     -0.114967  13 C  s                76      0.108374  14 H  s         

 Vector   18  Occ=2.000000D+00  E=-6.535242D-01
              MO Center= -3.7D-01,  2.6D-02,  3.8D-02, r^2= 4.6D+00
   Bfn.  Coefficient  Atom+Function         Bfn.  Coefficient  Atom+Function  
  ----- ------------  ---------------      ----- ------------  ---------------
    46      0.216881   7 C  s                94     -0.199533  17 C  s         
    42      0.181769   7 C  s                90     -0.167230  17 C  s         
    59     -0.148088  10 C  s                83      0.148086  15 C  s         
   108      0.119521  21 C  pz               55     -0.115084  10 C  s         
    79      0.115084  15 C  s               119      0.109339  25 H  s         

 Vector   19  Occ=2.000000D+00  E=-6.535237D-01
              MO Center= -1.2D-03, -5.4D-02, -1.8D-02, r^2= 4.7D+00
   Bfn.  Coefficient  Atom+Function         Bfn.  Coefficient  Atom+Function  
  ----- ------------  ---------------      ----- ------------  ---------------
    15      0.180048   2 C  s               109     -0.180048  21 C  s         
    94      0.163176  17 C  s                24     -0.156371   3 C  s         
     6     -0.142575   1 C  s                11      0.139921   2 C  s         
   105     -0.139921  21 C  s                90      0.136758  17 C  s         
    46      0.135770   7 C  s                20     -0.131055   3 C  s         

 Vector   20  Occ=2.000000D+00  E=-5.958257D-01
              MO Center=  8.1D-06,  3.8D-06,  5.0D-08, r^2= 4.9D+00
   Bfn.  Coefficient  Atom+Function         Bfn.  Coefficient  Atom+Function  
  ----- ------------  ---------------      ----- ------------  ---------------
    12      0.145794   2 C  px               36      0.145792   6 C  pz        
    57      0.145793  10 C  py               71     -0.145792  13 C  pz        
    81     -0.145792  15 C  py              106     -0.145792  21 C  px        
     6     -0.093031   1 C  s                24     -0.093031   3 C  s         
    46     -0.093031   7 C  s                94     -0.093030  17 C  s         

 Vector   21  Occ=2.000000D+00  E=-5.210640D-01
              MO Center= -1.2D-05,  2.1D-07, -1.3D-08, r^2= 5.8D+00
   Bfn.  Coefficient  Atom+Function         Bfn.  Coefficient  Atom+Function  
  ----- ------------  ---------------      ----- ------------  ---------------
     6      0.186085   1 C  s                24      0.186085   3 C  s         
    46      0.186092   7 C  s                94      0.186092  17 C  s         
    76      0.146712  14 H  s                87      0.146712  16 H  s         
   102      0.146709  20 H  s               119      0.146709  25 H  s         
    15     -0.113791   2 C  s                37     -0.113794   6 C  s         

 Vector   22  Occ=2.000000D+00  E=-5.157231D-01
              MO Center=  1.9D-01, -1.8D-01, -2.1D-01, r^2= 5.0D+00
   Bfn.  Coefficient  Atom+Function         Bfn.  Coefficient  Atom+Function  
  ----- ------------  ---------------      ----- ------------  ---------------
    30      0.137365   5 H  s               100      0.137786  19 H  s         
   113      0.135565  22 H  s                57     -0.129542  10 C  py        
    69     -0.129932  13 C  px               70      0.129879  13 C  py        
    81     -0.129545  15 C  py               12      0.126062   2 C  px        
   106      0.126059  21 C  px               13      0.122142   2 C  py        

 Vector   23  Occ=2.000000D+00  E=-5.157229D-01
              MO Center= -4.4D-02, -4.0D-02,  2.9D-01, r^2= 5.0D+00
   Bfn.  Coefficient  Atom+Function         Bfn.  Coefficient  Atom+Function  
  ----- ------------  ---------------      ----- ------------  ---------------
    57      0.156522  10 C  py               81      0.156518  15 C  py        
    34     -0.151590   6 C  px               35     -0.151361   6 C  py        
    12      0.141527   2 C  px              106      0.141524  21 C  px        
    98     -0.125460  18 H  s               117     -0.123656  24 H  s         
    63      0.110847  11 H  s                28      0.109045   4 H  s         

 Vector   24  Occ=2.000000D+00  E=-5.157223D-01
              MO Center= -1.4D-01,  2.2D-01, -7.5D-02, r^2= 5.0D+00
   Bfn.  Coefficient  Atom+Function         Bfn.  Coefficient  Atom+Function  
  ----- ------------  ---------------      ----- ------------  ---------------
    36      0.179423   6 C  pz               71      0.179420  13 C  pz        
    56     -0.140274  10 C  px               58     -0.138994  10 C  pz        
   115     -0.133495  23 H  s               107      0.123120  21 C  py        
   121     -0.123384  26 H  s               108     -0.121318  21 C  pz        
    65     -0.119264  12 H  s                12      0.095333   2 C  px        

 Vector   25  Occ=2.000000D+00  E=-4.654785D-01
              MO Center= -6.2D-02, -1.2D-01, -8.4D-02, r^2= 4.4D+00
   Bfn.  Coefficient  Atom+Function         Bfn.  Coefficient  Atom+Function  
  ----- ------------  ---------------      ----- ------------  ---------------
    80      0.169965  15 C  px               69     -0.168669  13 C  px        
    34     -0.162417   6 C  px               56      0.161121  10 C  px        
     4      0.153868   1 C  py               44     -0.153864   7 C  py        
    23     -0.134803   3 C  pz               45      0.134798   7 C  pz        
    82     -0.127302  15 C  pz              108      0.124386  21 C  pz        

 Vector   26  Occ=2.000000D+00  E=-4.654782D-01
              MO Center= -1.4D-02,  8.0D-03,  1.3D-01, r^2= 4.4D+00
   Bfn.  Coefficient  Atom+Function         Bfn.  Coefficient  Atom+Function  
  ----- ------------  ---------------      ----- ------------  ---------------
    35     -0.197354   6 C  py               13      0.192923   2 C  py        
   107      0.193817  21 C  py               70     -0.189395  13 C  py        
     5      0.162302   1 C  pz               93     -0.162299  17 C  pz        
    34     -0.116205   6 C  px               50      0.111577   8 H  s         
    52     -0.111577   9 H  s                 3      0.110335   1 C  px        

 Vector   27  Occ=2.000000D+00  E=-4.654776D-01
              MO Center=  7.6D-02,  1.1D-01, -4.1D-02, r^2= 4.4D+00
   Bfn.  Coefficient  Atom+Function         Bfn.  Coefficient  Atom+Function  
  ----- ------------  ---------------      ----- ------------  ---------------
    58     -0.189686  10 C  pz               14      0.188518   2 C  pz        
   108      0.183512  21 C  pz               82     -0.182349  15 C  pz        
    22      0.153811   3 C  py               92     -0.153810  17 C  py        
    43     -0.136633   7 C  px               91      0.136635  17 C  px        
    56     -0.107476  10 C  px               63      0.105741  11 H  s         

 Vector   28  Occ=2.000000D+00  E=-4.489853D-01
              MO Center=  2.9D-03,  5.3D-02, -1.2D-02, r^2= 4.9D+00
   Bfn.  Coefficient  Atom+Function         Bfn.  Coefficient  Atom+Function  
  ----- ------------  ---------------      ----- ------------  ---------------
    12      0.163957   2 C  px              106      0.163956  21 C  px        
    15     -0.144289   2 C  s               109      0.144289  21 C  s         
     4      0.138693   1 C  py                5     -0.133051   1 C  pz        
    76      0.131622  14 H  s                44     -0.130131   7 C  py        
    82     -0.122692  15 C  pz               45     -0.121308   7 C  pz        

 Vector   29  Occ=2.000000D+00  E=-4.489847D-01
              MO Center=  6.9D-02, -9.7D-03,  2.8D-02, r^2= 4.9D+00
   Bfn.  Coefficient  Atom+Function         Bfn.  Coefficient  Atom+Function  
  ----- ------------  ---------------      ----- ------------  ---------------
    57     -0.158509  10 C  py               81     -0.158507  15 C  py        
    21      0.150734   3 C  px               23      0.144931   3 C  pz        
    87      0.145127  16 H  s                59      0.139495  10 C  s         
    83     -0.139495  15 C  s                88      0.131157  16 H  s         
     3     -0.129467   1 C  px               22     -0.126463   3 C  py        

 Vector   30  Occ=2.000000D+00  E=-4.489842D-01
              MO Center= -7.2D-02, -4.4D-02, -1.6D-02, r^2= 4.9D+00
   Bfn.  Coefficient  Atom+Function         Bfn.  Coefficient  Atom+Function  
  ----- ------------  ---------------      ----- ------------  ---------------
    91      0.156920  17 C  px               36      0.154812   6 C  pz        
    71      0.154813  13 C  pz               92      0.152787  17 C  py        
   102     -0.153102  20 H  s               103     -0.138364  20 H  s         
    37     -0.136244   6 C  s                72      0.136244  13 C  s         
    93      0.135617  17 C  pz               13      0.124122   2 C  py        

 Vector   31  Occ=2.000000D+00  E=-3.883357D-01
              MO Center= -3.0D-06, -9.8D-07,  2.6D-08, r^2= 4.3D+00
   Bfn.  Coefficient  Atom+Function         Bfn.  Coefficient  Atom+Function  
  ----- ------------  ---------------      ----- ------------  ---------------
    57      0.267944  10 C  py               81     -0.267945  15 C  py        
    12     -0.189273   2 C  px              106      0.189274  21 C  px        
     4     -0.148881   1 C  py               22      0.148879   3 C  py        
    44     -0.148880   7 C  py               92      0.148879  17 C  py        
    61      0.137560  10 C  py               85     -0.137561  15 C  py        

 Vector   32  Occ=2.000000D+00  E=-3.883354D-01
              MO Center= -3.7D-06, -5.0D-07,  1.5D-08, r^2= 4.3D+00
   Bfn.  Coefficient  Atom+Function         Bfn.  Coefficient  Atom+Function  
  ----- ------------  ---------------      ----- ------------  ---------------
    36      0.263976   6 C  pz               71     -0.263976  13 C  pz        
    12     -0.200117   2 C  px              106      0.200119  21 C  px        
     5      0.146674   1 C  pz               23     -0.146675   3 C  pz        
    45     -0.146674   7 C  pz               93      0.146674  17 C  pz        
    40      0.135523   6 C  pz               75     -0.135523  13 C  pz        

 Vector   33  Occ=2.000000D+00  E=-3.784117D-01
              MO Center= -1.0D-01, -1.7D-01, -1.4D-01, r^2= 4.8D+00
   Bfn.  Coefficient  Atom+Function         Bfn.  Coefficient  Atom+Function  
  ----- ------------  ---------------      ----- ------------  ---------------
    35      0.183131   6 C  py               58     -0.183484  10 C  pz        
    70     -0.179689  13 C  py               82      0.179337  15 C  pz        
     4      0.138562   1 C  py               44     -0.138558   7 C  py        
    23     -0.128949   3 C  pz               45      0.128944   7 C  pz        
    56      0.128253  10 C  px               98     -0.128654  18 H  s         

 Vector   34  Occ=2.000000D+00  E=-3.784113D-01
              MO Center= -8.9D-02,  7.3D-02,  2.1D-01, r^2= 4.8D+00
   Bfn.  Coefficient  Atom+Function         Bfn.  Coefficient  Atom+Function  
  ----- ------------  ---------------      ----- ------------  ---------------
    69      0.184949  13 C  px               14      0.183545   2 C  pz        
   108     -0.181436  21 C  pz               34     -0.180026   6 C  px        
    70      0.151535  13 C  py                5     -0.149560   1 C  pz        
    82     -0.149567  15 C  pz               93      0.149560  17 C  pz        
    58      0.147463  10 C  pz               35     -0.145491   6 C  py        

 Vector   35  Occ=2.000000D+00  E=-3.784104D-01
              MO Center=  1.9D-01,  1.0D-01, -6.3D-02, r^2= 4.8D+00
   Bfn.  Coefficient  Atom+Function         Bfn.  Coefficient  Atom+Function  
  ----- ------------  ---------------      ----- ------------  ---------------
    80      0.200281  15 C  px              107     -0.201229  21 C  py        
    13      0.197129   2 C  py               56     -0.198073  10 C  px        
    43      0.145872   7 C  px               91     -0.145874  17 C  px        
    28     -0.135447   4 H  s                30      0.135448   5 H  s         
    29     -0.128913   4 H  s                31      0.128913   5 H  s         

 Vector   36  Occ=2.000000D+00  E=-3.289816D-01
              MO Center=  2.0D-01,  1.7D-02, -1.9D-02, r^2= 4.8D+00
   Bfn.  Coefficient  Atom+Function         Bfn.  Coefficient  Atom+Function  
  ----- ------------  ---------------      ----- ------------  ---------------
    13     -0.174884   2 C  py               77      0.173863  14 H  s         
     4      0.166338   1 C  py               14      0.165161   2 C  pz        
    22      0.165514   3 C  py               88     -0.158812  16 H  s         
    92      0.157835  17 C  py               44      0.157009   7 C  py        
    76      0.151961  14 H  s                 5     -0.146737   1 C  pz        

 Vector   37  Occ=2.000000D+00  E=-3.289807D-01
              MO Center= -2.4D-02,  8.2D-02,  1.0D-01, r^2= 4.8D+00
   Bfn.  Coefficient  Atom+Function         Bfn.  Coefficient  Atom+Function  
  ----- ------------  ---------------      ----- ------------  ---------------
    43      0.205024   7 C  px                3      0.201526   1 C  px        
    21      0.202203   3 C  px               91      0.198700  17 C  px        
    34     -0.180424   6 C  px               56     -0.176819  10 C  px        
   120     -0.168458  25 H  s                80     -0.146743  15 C  px        
   119     -0.147237  25 H  s                69     -0.143138  13 C  px        

 Vector   38  Occ=2.000000D+00  E=-3.289805D-01
              MO Center= -1.7D-01, -9.9D-02, -8.3D-02, r^2= 4.8D+00
   Bfn.  Coefficient  Atom+Function         Bfn.  Coefficient  Atom+Function  
  ----- ------------  ---------------      ----- ------------  ---------------
   103      0.196707  20 H  s               102      0.171927  20 H  s         
   108      0.166011  21 C  pz               93     -0.161424  17 C  pz        
    45     -0.157004   7 C  pz               23     -0.153627   3 C  pz        
   107      0.153671  21 C  py                5     -0.149208   1 C  pz        
    82      0.148021  15 C  pz               92     -0.136547  17 C  py        

 Vector   39  Occ=0.000000D+00  E= 1.197718D-01
              MO Center=  7.0D-06,  9.8D-06,  2.2D-08, r^2= 9.1D+00
   Bfn.  Coefficient  Atom+Function         Bfn.  Coefficient  Atom+Function  
  ----- ------------  ---------------      ----- ------------  ---------------
    15      0.625156   2 C  s                37      0.625154   6 C  s         
    59      0.625157  10 C  s                72      0.625154  13 C  s         
    83      0.625155  15 C  s               109      0.625154  21 C  s         
    29     -0.442048   4 H  s                31     -0.442048   5 H  s         
    51     -0.442044   8 H  s                53     -0.442045   9 H  s         

 Vector   40  Occ=0.000000D+00  E= 1.816578D-01
              MO Center=  2.8D-02,  2.3D-01,  1.8D-01, r^2= 8.9D+00
   Bfn.  Coefficient  Atom+Function         Bfn.  Coefficient  Atom+Function  
  ----- ------------  ---------------      ----- ------------  ---------------
    15      0.986951   2 C  s               109     -0.986959  21 C  s         
    31     -0.757024   5 H  s                53     -0.651652   9 H  s         
    66     -0.647084  12 H  s               118      0.637008  24 H  s         
   122      0.600734  26 H  s               114      0.531634  22 H  s         
    64      0.496658  11 H  s               101      0.490790  19 H  s         

 Vector   41  Occ=0.000000D+00  E= 1.816579D-01
              MO Center=  6.3D-01, -1.3D-01, -2.4D-01, r^2= 8.5D+00
   Bfn.  Coefficient  Atom+Function         Bfn.  Coefficient  Atom+Function  
  ----- ------------  ---------------      ----- ------------  ---------------
    99      0.874737  18 H  s                59      0.862393  10 C  s         
    83     -0.862382  15 C  s               116      0.826993  23 H  s         
    29      0.788488   4 H  s                66     -0.692943  12 H  s         
    53     -0.645187   9 H  s               120     -0.585785  25 H  s         
    31     -0.560582   5 H  s                37      0.485859   6 C  s         

 Vector   42  Occ=0.000000D+00  E= 1.816582D-01
              MO Center= -6.6D-01, -9.9D-02,  5.8D-02, r^2= 8.6D+00
   Bfn.  Coefficient  Atom+Function         Bfn.  Coefficient  Atom+Function  
  ----- ------------  ---------------      ----- ------------  ---------------
    37      0.867368   6 C  s                72     -0.867362  13 C  s         
    51     -0.834322   8 H  s               101     -0.788385  19 H  s         
   114      0.758364  22 H  s               122     -0.734045  26 H  s         
    64      0.712434  11 H  s               118      0.638801  24 H  s         
    77      0.554422  14 H  s                59     -0.504699  10 C  s         

 Vector   43  Occ=0.000000D+00  E= 1.896636D-01
              MO Center= -2.1D-01, -4.4D-01, -2.0D-01, r^2= 8.5D+00
   Bfn.  Coefficient  Atom+Function         Bfn.  Coefficient  Atom+Function  
  ----- ------------  ---------------      ----- ------------  ---------------
    94      1.580888  17 C  s               103     -1.009806  20 H  s         
    24     -0.993472   3 C  s                29      0.710048   4 H  s         
    51      0.709954   8 H  s                64      0.711661  11 H  s         
    88      0.634586  16 H  s                66     -0.449469  12 H  s         
   116     -0.445027  23 H  s               122     -0.445118  26 H  s         

 Vector   44  Occ=0.000000D+00  E= 1.896640D-01
              MO Center= -1.6D-01,  1.2D-01,  4.5D-01, r^2= 8.6D+00
   Bfn.  Coefficient  Atom+Function         Bfn.  Coefficient  Atom+Function  
  ----- ------------  ---------------      ----- ------------  ---------------
    46      1.507407   7 C  s                24     -1.113651   3 C  s         
   120     -0.962856  25 H  s                88      0.711328  16 H  s         
    31      0.677235   5 H  s               101      0.676377  19 H  s         
   114      0.679005  22 H  s               116     -0.503243  23 H  s         
    66     -0.498801  12 H  s               122     -0.499643  26 H  s         

 Vector   45  Occ=0.000000D+00  E= 1.896643D-01
              MO Center=  3.7D-01,  3.3D-01, -2.5D-01, r^2= 8.5D+00
   Bfn.  Coefficient  Atom+Function         Bfn.  Coefficient  Atom+Function  
  ----- ------------  ---------------      ----- ------------  ---------------
     6      1.637098   1 C  s                77     -1.045687  14 H  s         
    53      0.735317   9 H  s                99      0.735969  18 H  s         
   118      0.736232  24 H  s                24     -0.720325   3 C  s         
    46     -0.603718   7 C  s                88      0.460120  16 H  s         
   120      0.385618  25 H  s                18      0.373296   2 C  pz        

 Vector   46  Occ=0.000000D+00  E= 2.056941D-01
              MO Center=  7.2D-07, -1.1D-05, -2.9D-07, r^2= 8.1D+00
   Bfn.  Coefficient  Atom+Function         Bfn.  Coefficient  Atom+Function  
  ----- ------------  ---------------      ----- ------------  ---------------
    77      0.897858  14 H  s                88      0.897868  16 H  s         
   103      0.897875  20 H  s               120      0.897863  25 H  s         
    16      0.611489   2 C  px               40      0.611490   6 C  pz        
    61      0.611490  10 C  py               75     -0.611490  13 C  pz        
    85     -0.611487  15 C  py              110     -0.611482  21 C  px        

 Vector   47  Occ=0.000000D+00  E= 2.232613D-01
              MO Center= -9.6D-06,  5.8D-06, -1.7D-08, r^2= 8.2D+00
   Bfn.  Coefficient  Atom+Function         Bfn.  Coefficient  Atom+Function  
  ----- ------------  ---------------      ----- ------------  ---------------
    15      1.791320   2 C  s               109      1.791330  21 C  s         
    59     -1.600008  10 C  s                83     -1.600004  15 C  s         
    29     -0.596198   4 H  s                31     -0.596202   5 H  s         
   118     -0.596204  24 H  s               122     -0.596200  26 H  s         
    64      0.532528  11 H  s                66      0.532526  12 H  s         

 Vector   48  Occ=0.000000D+00  E= 2.232617D-01
              MO Center= -5.8D-07,  2.3D-06, -8.8D-09, r^2= 8.2D+00
   Bfn.  Coefficient  Atom+Function         Bfn.  Coefficient  Atom+Function  
  ----- ------------  ---------------      ----- ------------  ---------------
    37      1.957993   6 C  s                72      1.957993  13 C  s         
    59     -1.144685  10 C  s                83     -1.144682  15 C  s         
    15     -0.813304   2 C  s               109     -0.813308  21 C  s         
    51     -0.651669   8 H  s                53     -0.651670   9 H  s         
   114     -0.651671  22 H  s               116     -0.651668  23 H  s         

 Vector   49  Occ=0.000000D+00  E= 2.533111D-01
              MO Center=  8.0D-02, -4.4D-01,  2.4D-01, r^2= 9.4D+00
   Bfn.  Coefficient  Atom+Function         Bfn.  Coefficient  Atom+Function  
  ----- ------------  ---------------      ----- ------------  ---------------
    15      1.361141   2 C  s               109     -1.361121  21 C  s         
    24     -1.289021   3 C  s                88      1.178568  16 H  s         
    94      0.979298  17 C  s               103     -0.895378  20 H  s         
   122      0.796529  26 H  s                29     -0.734736   4 H  s         
    46      0.714795   7 C  s                31     -0.682024   5 H  s         

 Vector   50  Occ=0.000000D+00  E= 2.533112D-01
              MO Center=  3.0D-01,  7.9D-02, -3.4D-01, r^2= 9.4D+00
   Bfn.  Coefficient  Atom+Function         Bfn.  Coefficient  Atom+Function  
  ----- ------------  ---------------      ----- ------------  ---------------
    59     -1.377592  10 C  s                83      1.377653  15 C  s         
     6      1.278229   1 C  s                77     -1.168704  14 H  s         
    94     -0.883611  17 C  s                24     -0.830971   3 C  s         
   103      0.807892  20 H  s                99     -0.800922  18 H  s         
    88      0.759771  16 H  s                64      0.722220  11 H  s         

 Vector   51  Occ=0.000000D+00  E= 2.533116D-01
              MO Center= -3.8D-01,  3.6D-01,  1.1D-01, r^2= 9.3D+00
   Bfn.  Coefficient  Atom+Function         Bfn.  Coefficient  Atom+Function  
  ----- ------------  ---------------      ----- ------------  ---------------
    37      1.346905   6 C  s                72     -1.346889  13 C  s         
    46     -1.330538   7 C  s               120      1.216529  25 H  s         
    94      0.855513  17 C  s                 6      0.820805   1 C  s         
   114      0.799199  22 H  s               103     -0.782201  20 H  s         
    77     -0.750483  14 H  s                51     -0.704413   8 H  s         

 Vector   52  Occ=0.000000D+00  E= 2.658031D-01
              MO Center=  8.9D-02,  8.0D-01, -4.4D-02, r^2= 8.0D+00
   Bfn.  Coefficient  Atom+Function         Bfn.  Coefficient  Atom+Function  
  ----- ------------  ---------------      ----- ------------  ---------------
    64      1.104228  11 H  s                66     -1.104229  12 H  s         
    60      0.795909  10 C  px               29     -0.777134   4 H  s         
    31      0.777080   5 H  s               118     -0.695071  24 H  s         
   122      0.695126  26 H  s                17     -0.662044   2 C  py        
   111      0.628498  21 C  py               62      0.623893  10 C  pz        

 Vector   53  Occ=0.000000D+00  E= 2.658040D-01
              MO Center= -4.5D-02,  3.0D-03,  1.3D-01, r^2= 8.7D+00
   Bfn.  Coefficient  Atom+Function         Bfn.  Coefficient  Atom+Function  
  ----- ------------  ---------------      ----- ------------  ---------------
    51     -0.876147   8 H  s                53      0.876149   9 H  s         
   118     -0.840789  24 H  s               122      0.840793  26 H  s         
    29      0.803287   4 H  s                31     -0.803290   5 H  s         
   114      0.768028  22 H  s               116     -0.768030  23 H  s         
    38     -0.742765   6 C  px              112     -0.728284  21 C  pz        

 Vector   54  Occ=0.000000D+00  E= 2.658045D-01
              MO Center= -4.3D-02, -8.0D-01, -8.6D-02, r^2= 8.0D+00
   Bfn.  Coefficient  Atom+Function         Bfn.  Coefficient  Atom+Function  
  ----- ------------  ---------------      ----- ------------  ---------------
    99      1.105217  18 H  s               101     -1.105211  19 H  s         
    86      0.795915  15 C  pz              114      0.775170  22 H  s         
   116     -0.775217  23 H  s                51      0.695386   8 H  s         
    53     -0.695341   9 H  s                74     -0.660881  13 C  py        
    39      0.628216   6 C  py               84     -0.625148  15 C  px        

 Vector   55  Occ=0.000000D+00  E= 2.949854D-01
              MO Center= -5.0D-01,  3.9D-02,  4.1D-02, r^2= 5.8D+00
   Bfn.  Coefficient  Atom+Function         Bfn.  Coefficient  Atom+Function  
  ----- ------------  ---------------      ----- ------------  ---------------
    46      2.126303   7 C  s                94     -1.963068  17 C  s         
    59     -0.774925  10 C  s                83      0.774951  15 C  s         
    37     -0.745416   6 C  s                72      0.745395  13 C  s         
    61      0.687569  10 C  py               85      0.687659  15 C  py        
   112     -0.685930  21 C  pz               48     -0.678021   7 C  py        

 Vector   56  Occ=0.000000D+00  E= 2.949860D-01
              MO Center=  4.9D-02,  1.8D-01, -2.5D-01, r^2= 6.0D+00
   Bfn.  Coefficient  Atom+Function         Bfn.  Coefficient  Atom+Function  
  ----- ------------  ---------------      ----- ------------  ---------------
     6      2.017186   1 C  s                94     -1.470365  17 C  s         
    46     -1.276150   7 C  s                15     -1.021050   2 C  s         
   109      1.021076  21 C  s                16      0.905938   2 C  px        
   110      0.906066  21 C  px               24      0.729243   3 C  s         
    74     -0.713728  13 C  py               62      0.694303  10 C  pz        

 Vector   57  Occ=0.000000D+00  E= 2.949861D-01
              MO Center=  4.5D-01, -2.2D-01,  2.0D-01, r^2= 5.7D+00
   Bfn.  Coefficient  Atom+Function         Bfn.  Coefficient  Atom+Function  
  ----- ------------  ---------------      ----- ------------  ---------------
    24      2.397289   3 C  s                 6     -1.490894   1 C  s         
    26      0.754446   3 C  py               27     -0.757531   3 C  pz        
    37     -0.750276   6 C  s                72      0.750300  13 C  s         
    88      0.748893  16 H  s                25     -0.734640   3 C  px        
    59      0.695280  10 C  s                83     -0.695297  15 C  s         

 Vector   58  Occ=0.000000D+00  E= 3.004952D-01
              MO Center=  1.6D-05, -4.6D-06,  2.5D-08, r^2= 6.6D+00
   Bfn.  Coefficient  Atom+Function         Bfn.  Coefficient  Atom+Function  
  ----- ------------  ---------------      ----- ------------  ---------------
    16      0.894248   2 C  px              110     -0.894109  21 C  px        
    61     -0.760466  10 C  py               85      0.760379  15 C  py        
    29     -0.661041   4 H  s                31     -0.661009   5 H  s         
   118     -0.660992  24 H  s               122     -0.661024  26 H  s         
    64      0.562139  11 H  s                66      0.562097  12 H  s         

 Vector   59  Occ=0.000000D+00  E= 3.004956D-01
              MO Center=  3.4D-06, -2.8D-06, -1.5D-07, r^2= 6.6D+00
   Bfn.  Coefficient  Atom+Function         Bfn.  Coefficient  Atom+Function  
  ----- ------------  ---------------      ----- ------------  ---------------
    40      0.955294   6 C  pz               75     -0.955296  13 C  pz        
    51     -0.706209   8 H  s                53     -0.706166   9 H  s         
   114     -0.706185  22 H  s               116     -0.706191  23 H  s         
    61     -0.593516  10 C  py               85      0.593449  15 C  py        
     9     -0.543998   1 C  pz               27      0.543968   3 C  pz        

 Vector   60  Occ=0.000000D+00  E= 3.381801D-01
              MO Center= -4.3D-06, -3.9D-05, -4.0D-07, r^2= 6.6D+00
   Bfn.  Coefficient  Atom+Function         Bfn.  Coefficient  Atom+Function  
  ----- ------------  ---------------      ----- ------------  ---------------
     6      2.311812   1 C  s                24      2.311825   3 C  s         
    46      2.311758   7 C  s                94      2.311771  17 C  s         
    15     -1.515523   2 C  s                37     -1.515508   6 C  s         
    59     -1.515414  10 C  s                72     -1.515509  13 C  s         
    83     -1.515597  15 C  s               109     -1.515521  21 C  s         

 Vector   61  Occ=0.000000D+00  E= 3.445140D-01
              MO Center=  1.7D-01, -1.6D-02, -8.5D-03, r^2= 5.6D+00
   Bfn.  Coefficient  Atom+Function         Bfn.  Coefficient  Atom+Function  
  ----- ------------  ---------------      ----- ------------  ---------------
    37      1.557623   6 C  s                72     -1.557561  13 C  s         
    95      1.078832  17 C  px                8     -1.058335   1 C  py        
    27     -1.038290   3 C  pz               47     -1.013797   7 C  px        
    40     -1.000821   6 C  pz               75     -1.000787  13 C  pz        
    26     -0.988957   3 C  py                9     -0.968917   1 C  pz        

 Vector   62  Occ=0.000000D+00  E= 3.445146D-01
              MO Center= -1.7D-02, -4.8D-02,  1.3D-01, r^2= 5.6D+00
   Bfn.  Coefficient  Atom+Function         Bfn.  Coefficient  Atom+Function  
  ----- ------------  ---------------      ----- ------------  ---------------
    15      1.652253   2 C  s               109     -1.652128  21 C  s         
    97      1.071469  17 C  pz               16     -1.061606   2 C  px        
    48     -1.061715   7 C  py              110     -1.061552  21 C  px        
    25     -1.032266   3 C  px                9     -0.887397   1 C  pz        
    26     -0.865369   3 C  py               47     -0.835942   7 C  px        

 Vector   63  Occ=0.000000D+00  E= 3.445146D-01
              MO Center= -1.5D-01,  6.4D-02, -1.2D-01, r^2= 5.6D+00
   Bfn.  Coefficient  Atom+Function         Bfn.  Coefficient  Atom+Function  
  ----- ------------  ---------------      ----- ------------  ---------------
    59      1.447943  10 C  s                83     -1.447840  15 C  s         
     7      1.239868   1 C  px               49      1.234897   7 C  pz        
    96     -1.217117  17 C  py               61     -0.930344  10 C  py        
    85     -0.930289  15 C  py               37     -0.799594   6 C  s         
    72      0.799684  13 C  s                25     -0.732761   3 C  px        

 Vector   64  Occ=0.000000D+00  E= 3.734248D-01
              MO Center= -2.2D-02,  1.8D-01, -1.2D-01, r^2= 6.0D+00
   Bfn.  Coefficient  Atom+Function         Bfn.  Coefficient  Atom+Function  
  ----- ------------  ---------------      ----- ------------  ---------------
    60      1.251033  10 C  px               73     -1.225692  13 C  px        
    38     -1.117330   6 C  px               84      1.091985  15 C  px        
     8     -1.010488   1 C  py               48      1.010486   7 C  py        
     9     -0.961019   1 C  pz               97      0.961021  17 C  pz        
    27      0.749535   3 C  pz               49     -0.749536   7 C  pz        

 Vector   65  Occ=0.000000D+00  E= 3.734251D-01
              MO Center= -4.9D-01, -1.5D-01,  1.5D-01, r^2= 5.8D+00
   Bfn.  Coefficient  Atom+Function         Bfn.  Coefficient  Atom+Function  
  ----- ------------  ---------------      ----- ------------  ---------------
    47      1.210556   7 C  px               95     -1.210555  17 C  px        
   111      1.144031  21 C  py              112      1.134371  21 C  pz        
    39     -0.931250   6 C  py               86     -0.915817  15 C  pz        
    27     -0.795264   3 C  pz               49      0.795259   7 C  pz        
    26     -0.783999   3 C  py               96      0.783992  17 C  py        

 Vector   66  Occ=0.000000D+00  E= 3.734267D-01
              MO Center=  5.1D-01, -3.0D-02, -3.0D-02, r^2= 5.8D+00
   Bfn.  Coefficient  Atom+Function         Bfn.  Coefficient  Atom+Function  
  ----- ------------  ---------------      ----- ------------  ---------------
     7      1.237357   1 C  px               25     -1.237356   3 C  px        
    17     -1.164199   2 C  py               18      1.164703   2 C  pz        
    74      0.865376  13 C  py               86     -0.866183  15 C  pz        
    39      0.828615   6 C  py               62     -0.829421  10 C  pz        
     9      0.654260   1 C  pz               26     -0.654848   3 C  py        

 Vector   67  Occ=0.000000D+00  E= 6.307088D-01
              MO Center=  6.7D-01, -2.6D-02, -2.4D-02, r^2= 5.8D+00
   Bfn.  Coefficient  Atom+Function         Bfn.  Coefficient  Atom+Function  
  ----- ------------  ---------------      ----- ------------  ---------------
    17      0.472223   2 C  py                7      0.464673   1 C  px        
    25     -0.464656   3 C  px               18     -0.460433   2 C  pz        
    13     -0.406132   2 C  py               14      0.402695   2 C  pz        
    84      0.308216  15 C  px               60     -0.294852  10 C  px        
     3     -0.286258   1 C  px               21      0.286231   3 C  px        

 Vector   68  Occ=0.000000D+00  E= 6.307104D-01
              MO Center= -5.6D-01, -3.3D-01,  3.8D-01, r^2= 5.7D+00
   Bfn.  Coefficient  Atom+Function         Bfn.  Coefficient  Atom+Function  
  ----- ------------  ---------------      ----- ------------  ---------------
   112     -0.432750  21 C  pz               47      0.424752   7 C  px        
    95     -0.424729  17 C  px              111     -0.419840  21 C  py        
    38     -0.382271   6 C  px              108      0.371555  21 C  pz        
   107      0.367829  21 C  py               27     -0.359966   3 C  pz        
    49      0.359999   7 C  pz               84      0.346970  15 C  px        

 Vector   69  Occ=0.000000D+00  E= 6.307105D-01
              MO Center= -1.1D-01,  3.6D-01, -3.5D-01, r^2= 6.0D+00
   Bfn.  Coefficient  Atom+Function         Bfn.  Coefficient  Atom+Function  
  ----- ------------  ---------------      ----- ------------  ---------------
    62      0.443527  10 C  pz               74      0.443145  13 C  py        
     8     -0.395652   1 C  py                9     -0.395077   1 C  pz        
    48      0.395657   7 C  py               97      0.395067  17 C  pz        
    58     -0.357772  10 C  pz               70     -0.357354  13 C  py        
    60     -0.350397  10 C  px               73      0.349660  13 C  px        

 Vector   70  Occ=0.000000D+00  E= 6.319004D-01
              MO Center= -4.6D-01,  1.0D-02, -9.5D-03, r^2= 5.2D+00
   Bfn.  Coefficient  Atom+Function         Bfn.  Coefficient  Atom+Function  
  ----- ------------  ---------------      ----- ------------  ---------------
    40      0.602253   6 C  pz               75      0.602257  13 C  pz        
    61     -0.553395  10 C  py               85     -0.553403  15 C  py        
    37     -0.465476   6 C  s                72      0.465477  13 C  s         
    59      0.427727  10 C  s                83     -0.427719  15 C  s         
    25     -0.373595   3 C  px                7      0.371158   1 C  px        

 Vector   71  Occ=0.000000D+00  E= 6.319016D-01
              MO Center=  5.6D-04,  1.5D-02,  3.7D-02, r^2= 5.4D+00
   Bfn.  Coefficient  Atom+Function         Bfn.  Coefficient  Atom+Function  
  ----- ------------  ---------------      ----- ------------  ---------------
    16      0.817228   2 C  px              110      0.817247  21 C  px        
    15     -0.631641   2 C  s               109      0.631659  21 C  s         
    12     -0.476047   2 C  px              106     -0.476058  21 C  px        
    39     -0.368515   6 C  py               62     -0.367682  10 C  pz        
    74      0.365528  13 C  py               86      0.366573  15 C  pz        

 Vector   72  Occ=0.000000D+00  E= 6.319020D-01
              MO Center=  4.6D-01, -2.5D-02, -2.7D-02, r^2= 5.2D+00
   Bfn.  Coefficient  Atom+Function         Bfn.  Coefficient  Atom+Function  
  ----- ------------  ---------------      ----- ------------  ---------------
    61      0.601510  10 C  py               85      0.601519  15 C  py        
    40      0.553395   6 C  pz               75      0.553390  13 C  pz        
    59     -0.464912  10 C  s                83      0.464903  15 C  s         
    37     -0.427708   6 C  s                72      0.427707  13 C  s         
    47      0.375343   7 C  px               46      0.372611   7 C  s         

 Vector   73  Occ=0.000000D+00  E= 6.910268D-01
              MO Center= -1.6D-05,  3.8D-06,  1.7D-08, r^2= 4.8D+00
   Bfn.  Coefficient  Atom+Function         Bfn.  Coefficient  Atom+Function  
  ----- ------------  ---------------      ----- ------------  ---------------
    16      0.351504   2 C  px               40      0.351575   6 C  pz        
    61      0.351564  10 C  py               75     -0.351575  13 C  pz        
    85     -0.351560  15 C  py              110     -0.351569  21 C  px        
    12     -0.313485   2 C  px               36     -0.313511   6 C  pz        
    57     -0.313506  10 C  py               71      0.313511  13 C  pz        

 Vector   74  Occ=0.000000D+00  E= 7.112067D-01
              MO Center= -5.4D-01,  1.1D-02,  1.0D-02, r^2= 4.5D+00
   Bfn.  Coefficient  Atom+Function         Bfn.  Coefficient  Atom+Function  
  ----- ------------  ---------------      ----- ------------  ---------------
    46      1.337585   7 C  s                94     -1.311609  17 C  s         
   111     -0.609064  21 C  py              112     -0.592946  21 C  pz        
    40      0.539431   6 C  pz               75      0.539426  13 C  pz        
    61      0.494955  10 C  py               85      0.494960  15 C  py        
    47      0.452387   7 C  px               95     -0.447757  17 C  px        

 Vector   75  Occ=0.000000D+00  E= 7.112075D-01
              MO Center=  5.3D-01,  7.2D-02, -7.9D-02, r^2= 4.5D+00
   Bfn.  Coefficient  Atom+Function         Bfn.  Coefficient  Atom+Function  
  ----- ------------  ---------------      ----- ------------  ---------------
     6      1.411860   1 C  s                24     -1.224099   3 C  s         
    18      0.606260   2 C  pz               17     -0.589705   2 C  py        
    61      0.537463  10 C  py               85      0.537463  15 C  py        
    40     -0.491769   6 C  pz               75     -0.491779  13 C  pz        
     7     -0.464573   1 C  px               73     -0.438970  13 C  px        

 Vector   76  Occ=0.000000D+00  E= 7.112076D-01
              MO Center=  5.4D-03, -8.3D-02,  6.9D-02, r^2= 4.8D+00
   Bfn.  Coefficient  Atom+Function         Bfn.  Coefficient  Atom+Function  
  ----- ------------  ---------------      ----- ------------  ---------------
    24      1.066226   3 C  s                94     -0.945346  17 C  s         
    46     -0.920242   7 C  s                 6      0.799351   1 C  s         
    16      0.728425   2 C  px              110      0.728441  21 C  px        
    86     -0.578006  15 C  pz               39      0.574086   6 C  py        
    15     -0.550666   2 C  s               109      0.550720  21 C  s         

 Vector   77  Occ=0.000000D+00  E= 7.523613D-01
              MO Center=  5.4D-07,  1.2D-05, -9.2D-08, r^2= 4.7D+00
   Bfn.  Coefficient  Atom+Function         Bfn.  Coefficient  Atom+Function  
  ----- ------------  ---------------      ----- ------------  ---------------
    59      1.033674  10 C  s                83      1.033655  15 C  s         
     8     -0.821470   1 C  py               26      0.821457   3 C  py        
    48     -0.821465   7 C  py               96      0.821453  17 C  py        
    37     -0.683524   6 C  s                72     -0.683524  13 C  s         
    61     -0.609367  10 C  py               85      0.609361  15 C  py        

 Vector   78  Occ=0.000000D+00  E= 7.523619D-01
              MO Center= -1.3D-06,  2.1D-07, -8.8D-08, r^2= 4.7D+00
   Bfn.  Coefficient  Atom+Function         Bfn.  Coefficient  Atom+Function  
  ----- ------------  ---------------      ----- ------------  ---------------
    15      0.991416   2 C  s               109      0.991401  21 C  s         
    37     -0.798966   6 C  s                72     -0.798966  13 C  s         
     7     -0.787920   1 C  px               25     -0.787919   3 C  px        
    47      0.787955   7 C  px               95      0.787954  17 C  px        
     9     -0.634894   1 C  pz               27      0.634895   3 C  pz        

 Vector   79  Occ=0.000000D+00  E= 7.614934D-01
              MO Center=  1.8D-05,  1.3D-06, -4.0D-08, r^2= 3.9D+00
   Bfn.  Coefficient  Atom+Function         Bfn.  Coefficient  Atom+Function  
  ----- ------------  ---------------      ----- ------------  ---------------
     6      0.849424   1 C  s                24      0.849421   3 C  s         
    46      0.849397   7 C  s                94      0.849394  17 C  s         
    16      0.592410   2 C  px               40      0.592373   6 C  pz        
    61      0.592378  10 C  py               75     -0.592374  13 C  pz        
    85     -0.592382  15 C  py              110     -0.592384  21 C  px        

 Vector   80  Occ=0.000000D+00  E= 7.809329D-01
              MO Center=  1.6D-06, -8.6D-06, -6.9D-08, r^2= 7.5D+00
   Bfn.  Coefficient  Atom+Function         Bfn.  Coefficient  Atom+Function  
  ----- ------------  ---------------      ----- ------------  ---------------
    40      1.429883   6 C  pz               75     -1.429883  13 C  pz        
    37      0.997876   6 C  s                72      0.997876  13 C  s         
    61     -0.945843  10 C  py               85      0.945848  15 C  py        
    59     -0.660016  10 C  s                83     -0.660061  15 C  s         
    51     -0.516771   8 H  s                53     -0.516772   9 H  s         

 Vector   81  Occ=0.000000D+00  E= 7.809360D-01
              MO Center=  4.0D-06, -1.1D-05, -3.7D-08, r^2= 7.5D+00
   Bfn.  Coefficient  Atom+Function         Bfn.  Coefficient  Atom+Function  
  ----- ------------  ---------------      ----- ------------  ---------------
    16      1.371684   2 C  px              110     -1.371680  21 C  px        
    61     -1.105027  10 C  py               85      1.105032  15 C  py        
    15      0.957152   2 C  s               109      0.957120  21 C  s         
    59     -0.771121  10 C  s                83     -0.771173  15 C  s         
    29     -0.495723   4 H  s                31     -0.495728   5 H  s         

 Vector   82  Occ=0.000000D+00  E= 8.154824D-01
              MO Center=  5.0D-02,  3.1D-02,  5.6D-02, r^2= 5.2D+00
   Bfn.  Coefficient  Atom+Function         Bfn.  Coefficient  Atom+Function  
  ----- ------------  ---------------      ----- ------------  ---------------
    26      1.152638   3 C  py               47      1.036373   7 C  px        
     9      1.015621   1 C  pz               73      0.727235  13 C  px        
    48      0.721686   7 C  py              112      0.709112  21 C  pz        
     8      0.670710   1 C  py               59     -0.656748  10 C  s         
    83      0.656765  15 C  s                74      0.622043  13 C  py        

 Vector   83  Occ=0.000000D+00  E= 8.154825D-01
              MO Center=  3.3D-03, -5.4D-03, -6.7D-02, r^2= 5.2D+00
[...]
     Magnetic Dipole                               0.0000000000
     Total Oscillator Strength                     0.0062834940

     Occ.   24  a   ---  Virt.   39  a   -0.05869 X
     Occ.   31  a   ---  Virt.   41  a    0.17838 X
     Occ.   31  a   ---  Virt.   42  a   -0.05492 X
     Occ.   31  a   ---  Virt.   50  a   -0.05624 X
     Occ.   32  a   ---  Virt.   41  a   -0.11317 X
     Occ.   32  a   ---  Virt.   42  a   -0.10924 X
     Occ.   32  a   ---  Virt.   51  a   -0.05201 X
     Occ.   33  a   ---  Virt.   41  a   -0.05715 X
     Occ.   33  a   ---  Virt.   44  a   -0.09717 X
     Occ.   33  a   ---  Virt.   45  a    0.05650 X
     Occ.   34  a   ---  Virt.   40  a    0.05654 X
     Occ.   34  a   ---  Virt.   43  a   -0.09687 X
     Occ.   36  a   ---  Virt.   46  a   -0.09948 X
     Occ.   36  a   ---  Virt.   47  a    0.47005 X
     Occ.   36  a   ---  Virt.   48  a   -0.07569 X
     Occ.   37  a   ---  Virt.   47  a   -0.08773 X
     Occ.   37  a   ---  Virt.   48  a   -0.26161 X
     Occ.   38  a   ---  Virt.   47  a   -0.32303 X
     Occ.   38  a   ---  Virt.   48  a   -0.65549 X
     Occ.   38  a   ---  Virt.   59  a    0.06341 X
  ----------------------------------------------------------------------------
  Root  36 singlet a              0.432841151 a.u.               11.7782 eV 
  ----------------------------------------------------------------------------
     Transition Moments    X  0.00616   Y  0.09443   Z  0.11321
     Transition Moments   XX  0.00001  XY -0.67518  XZ -0.56319
     Transition Moments   YY  0.00001  YZ -0.03676  ZZ  0.00001
     Dipole Oscillator Strength                    0.0062823616
     Electric Quadrupole                           0.0000003344
     Magnetic Dipole                               0.0000000000
     Total Oscillator Strength                     0.0062826960

     Occ.   22  a   ---  Virt.   39  a   -0.05697 X
     Occ.   31  a   ---  Virt.   41  a    0.10735 X
     Occ.   31  a   ---  Virt.   42  a   -0.12373 X
     Occ.   31  a   ---  Virt.   50  a   -0.05216 X
     Occ.   32  a   ---  Virt.   41  a    0.05786 X
     Occ.   32  a   ---  Virt.   42  a    0.17619 X
     Occ.   32  a   ---  Virt.   51  a    0.05354 X
     Occ.   33  a   ---  Virt.   45  a    0.06968 X
     Occ.   34  a   ---  Virt.   45  a   -0.08442 X
     Occ.   35  a   ---  Virt.   40  a   -0.06468 X
     Occ.   35  a   ---  Virt.   43  a    0.07112 X
     Occ.   35  a   ---  Virt.   44  a    0.07866 X
     Occ.   36  a   ---  Virt.   47  a    0.31054 X
     Occ.   36  a   ---  Virt.   48  a    0.71596 X
     Occ.   36  a   ---  Virt.   59  a   -0.06909 X
     Occ.   37  a   ---  Virt.   47  a   -0.17619 X
     Occ.   37  a   ---  Virt.   48  a    0.07503 X
     Occ.   38  a   ---  Virt.   46  a    0.09571 X
     Occ.   38  a   ---  Virt.   47  a   -0.32412 X
     Occ.   38  a   ---  Virt.   48  a    0.29338 X
  ----------------------------------------------------------------------------
  Root  37 singlet a              0.440213835 a.u.               11.9788 eV 
  ----------------------------------------------------------------------------
     Transition Moments    X -0.00001   Y  0.00001   Z  0.00001
     Transition Moments   XX -0.00002  XY  0.00008  XZ  0.00015
     Transition Moments   YY -0.00001  YZ -0.00009  ZZ  0.00004
     Dipole Oscillator Strength                    0.0000000001
     Electric Quadrupole                           0.0000000000
     Magnetic Dipole                               0.0000215341
     Total Oscillator Strength                     0.0000215342

     Occ.   26  a   ---  Virt.   39  a    0.08746 X
     Occ.   27  a   ---  Virt.   39  a    0.38184 X
     Occ.   30  a   ---  Virt.   47  a    0.05667 X
     Occ.   31  a   ---  Virt.   40  a    0.06840 X
     Occ.   31  a   ---  Virt.   41  a    0.08085 X
     Occ.   31  a   ---  Virt.   42  a    0.11178 X
     Occ.   32  a   ---  Virt.   41  a    0.10541 X
     Occ.   33  a   ---  Virt.   41  a    0.05528 X
     Occ.   33  a   ---  Virt.   42  a   -0.31644 X
     Occ.   33  a   ---  Virt.   45  a    0.10973 X
     Occ.   34  a   ---  Virt.   40  a    0.19644 X
     Occ.   34  a   ---  Virt.   41  a   -0.26577 X
     Occ.   34  a   ---  Virt.   42  a    0.14546 X
     Occ.   34  a   ---  Virt.   44  a   -0.12592 X
     Occ.   35  a   ---  Virt.   39  a   -0.06407 X
     Occ.   35  a   ---  Virt.   40  a    0.38765 X
     Occ.   35  a   ---  Virt.   41  a    0.06013 X
     Occ.   35  a   ---  Virt.   42  a   -0.26922 X
     Occ.   35  a   ---  Virt.   43  a   -0.08261 X
     Occ.   35  a   ---  Virt.   45  a    0.14955 X
     Occ.   35  a   ---  Virt.   46  a    0.16119 X
     Occ.   36  a   ---  Virt.   43  a    0.05738 X
     Occ.   36  a   ---  Virt.   47  a   -0.09142 X
     Occ.   36  a   ---  Virt.   48  a   -0.09902 X
     Occ.   36  a   ---  Virt.   58  a    0.05411 X
     Occ.   36  a   ---  Virt.   59  a    0.06375 X
     Occ.   37  a   ---  Virt.   43  a   -0.12060 X
     Occ.   37  a   ---  Virt.   44  a    0.06934 X
     Occ.   37  a   ---  Virt.   48  a    0.10894 X
     Occ.   37  a   ---  Virt.   49  a    0.05110 X
     Occ.   37  a   ---  Virt.   50  a   -0.08704 X
     Occ.   37  a   ---  Virt.   51  a    0.08717 X
     Occ.   37  a   ---  Virt.   55  a    0.05877 X
     Occ.   37  a   ---  Virt.   59  a   -0.06656 X
     Occ.   38  a   ---  Virt.   43  a   -0.06189 X
     Occ.   38  a   ---  Virt.   44  a   -0.13317 X
     Occ.   38  a   ---  Virt.   47  a   -0.23791 X
     Occ.   38  a   ---  Virt.   49  a    0.12520 X
     Occ.   38  a   ---  Virt.   58  a    0.14814 X
  ----------------------------------------------------------------------------
  Root  38 singlet a              0.440214220 a.u.               11.9788 eV 
  ----------------------------------------------------------------------------
     Transition Moments    X -0.00001   Y -0.00003   Z  0.00000
     Transition Moments   XX  0.00002  XY -0.00013  XZ -0.00011
     Transition Moments   YY -0.00002  YZ -0.00008  ZZ  0.00000
     Dipole Oscillator Strength                    0.0000000002
     Electric Quadrupole                           0.0000000000
     Magnetic Dipole                               0.0000215327
     Total Oscillator Strength                     0.0000215330

     Occ.   26  a   ---  Virt.   39  a   -0.38090 X
     Occ.   27  a   ---  Virt.   39  a    0.08759 X
     Occ.   31  a   ---  Virt.   40  a    0.08615 X
     Occ.   32  a   ---  Virt.   40  a   -0.09445 X
     Occ.   32  a   ---  Virt.   41  a   -0.09765 X
     Occ.   32  a   ---  Virt.   42  a    0.08441 X
     Occ.   33  a   ---  Virt.   40  a    0.23407 X
     Occ.   33  a   ---  Virt.   42  a    0.14416 X
     Occ.   33  a   ---  Virt.   43  a   -0.07968 X
     Occ.   33  a   ---  Virt.   44  a   -0.06142 X
     Occ.   34  a   ---  Virt.   39  a    0.06404 X
     Occ.   34  a   ---  Virt.   40  a    0.07826 X
     Occ.   34  a   ---  Virt.   41  a   -0.36389 X
     Occ.   34  a   ---  Virt.   42  a   -0.32724 X
     Occ.   34  a   ---  Virt.   43  a    0.08791 X
     Occ.   34  a   ---  Virt.   44  a   -0.10842 X
     Occ.   34  a   ---  Virt.   45  a    0.11408 X
     Occ.   34  a   ---  Virt.   46  a   -0.16110 X
     Occ.   35  a   ---  Virt.   40  a   -0.21586 X
     Occ.   35  a   ---  Virt.   41  a    0.25218 X
     Occ.   35  a   ---  Virt.   42  a   -0.16606 X
     Occ.   35  a   ---  Virt.   44  a    0.12603 X
     Occ.   36  a   ---  Virt.   43  a    0.13594 X
     Occ.   36  a   ---  Virt.   47  a   -0.13234 X
     Occ.   36  a   ---  Virt.   48  a    0.14343 X
     Occ.   36  a   ---  Virt.   49  a   -0.09935 X
     Occ.   36  a   ---  Virt.   50  a    0.06033 X
     Occ.   36  a   ---  Virt.   51  a   -0.06029 X
     Occ.   36  a   ---  Virt.   58  a    0.08575 X
     Occ.   36  a   ---  Virt.   59  a   -0.08549 X
     Occ.   37  a   ---  Virt.   43  a    0.06360 X
     Occ.   37  a   ---  Virt.   45  a    0.05196 X
     Occ.   37  a   ---  Virt.   47  a    0.09465 X
     Occ.   37  a   ---  Virt.   48  a    0.10963 X
     Occ.   37  a   ---  Virt.   51  a   -0.06381 X
     Occ.   37  a   ---  Virt.   58  a   -0.05584 X
     Occ.   37  a   ---  Virt.   59  a   -0.07042 X
     Occ.   38  a   ---  Virt.   45  a   -0.13861 X
     Occ.   38  a   ---  Virt.   48  a   -0.17193 X
     Occ.   38  a   ---  Virt.   50  a    0.10460 X
     Occ.   38  a   ---  Virt.   51  a    0.07805 X
     Occ.   38  a   ---  Virt.   59  a    0.10639 X
  ----------------------------------------------------------------------------
  Root  39 singlet a              0.440214413 a.u.               11.9788 eV 
  ----------------------------------------------------------------------------
     Transition Moments    X -0.00001   Y  0.00002   Z -0.00002
     Transition Moments   XX -0.00002  XY -0.00005  XZ -0.00001
     Transition Moments   YY -0.00002  YZ -0.00003  ZZ  0.00004
     Dipole Oscillator Strength                    0.0000000003
     Electric Quadrupole                           0.0000000000
     Magnetic Dipole                               0.0000215320
     Total Oscillator Strength                     0.0000215322

     Occ.   25  a   ---  Virt.   39  a   -0.39080 X
     Occ.   31  a   ---  Virt.   40  a    0.08169 X
     Occ.   31  a   ---  Virt.   42  a   -0.10251 X
     Occ.   32  a   ---  Virt.   40  a   -0.08454 X
     Occ.   32  a   ---  Virt.   41  a    0.07187 X
     Occ.   32  a   ---  Virt.   42  a   -0.05935 X
     Occ.   33  a   ---  Virt.   39  a   -0.06406 X
     Occ.   33  a   ---  Virt.   40  a   -0.30928 X
     Occ.   33  a   ---  Virt.   41  a   -0.42435 X
     Occ.   33  a   ---  Virt.   42  a   -0.05870 X
     Occ.   33  a   ---  Virt.   43  a    0.17065 X
     Occ.   33  a   ---  Virt.   44  a   -0.08111 X
     Occ.   33  a   ---  Virt.   46  a    0.16115 X
     Occ.   34  a   ---  Virt.   40  a   -0.25921 X
     Occ.   34  a   ---  Virt.   42  a   -0.12426 X
     Occ.   34  a   ---  Virt.   43  a    0.08341 X
     Occ.   34  a   ---  Virt.   44  a    0.06533 X
     Occ.   35  a   ---  Virt.   41  a    0.05730 X
     Occ.   35  a   ---  Virt.   42  a   -0.30464 X
     Occ.   35  a   ---  Virt.   45  a    0.10531 X
     Occ.   36  a   ---  Virt.   44  a   -0.13644 X
     Occ.   36  a   ---  Virt.   45  a    0.06246 X
     Occ.   36  a   ---  Virt.   47  a    0.17054 X
     Occ.   36  a   ---  Virt.   48  a   -0.05810 X
     Occ.   36  a   ---  Virt.   49  a    0.08305 X
     Occ.   36  a   ---  Virt.   51  a   -0.11218 X
     Occ.   36  a   ---  Virt.   55  a   -0.05131 X
     Occ.   36  a   ---  Virt.   58  a   -0.10722 X
     Occ.   37  a   ---  Virt.   44  a   -0.05554 X
     Occ.   37  a   ---  Virt.   45  a   -0.12126 X
     Occ.   37  a   ---  Virt.   47  a    0.09639 X
     Occ.   37  a   ---  Virt.   48  a    0.21234 X
     Occ.   37  a   ---  Virt.   50  a    0.11058 X
     Occ.   37  a   ---  Virt.   51  a    0.05495 X
     Occ.   37  a   ---  Virt.   57  a    0.05764 X
     Occ.   37  a   ---  Virt.   58  a   -0.05427 X
     Occ.   37  a   ---  Virt.   59  a   -0.13415 X
     Occ.   38  a   ---  Virt.   45  a   -0.05545 X
     Occ.   38  a   ---  Virt.   50  a    0.05215 X
  ----------------------------------------------------------------------------
  Root  40 singlet a              0.443740181 a.u.               12.0748 eV 
  ----------------------------------------------------------------------------
     Transition Moments    X  0.00001   Y -0.00002   Z  0.00000
     Transition Moments   XX -0.00005  XY  0.00002  XZ  0.00003
     Transition Moments   YY -0.00005  YZ -0.00004  ZZ  0.00010
     Dipole Oscillator Strength                    0.0000000001
     Electric Quadrupole                           0.0000000000
     Magnetic Dipole                               0.0000105038
     Total Oscillator Strength                     0.0000105039

     Occ.   31  a   ---  Virt.   40  a   -0.39916 X
     Occ.   31  a   ---  Virt.   41  a   -0.12254 X
     Occ.   31  a   ---  Virt.   42  a   -0.27628 X
     Occ.   31  a   ---  Virt.   43  a   -0.29651 X
     Occ.   31  a   ---  Virt.   44  a   -0.07365 X
     Occ.   32  a   ---  Virt.   40  a    0.29960 X
     Occ.   32  a   ---  Virt.   41  a   -0.16160 X
     Occ.   32  a   ---  Virt.   42  a   -0.08764 X
     Occ.   32  a   ---  Virt.   43  a    0.07603 X
     Occ.   32  a   ---  Virt.   44  a    0.16125 X
     Occ.   32  a   ---  Virt.   45  a   -0.12354 X
     Occ.   33  a   ---  Virt.   42  a   -0.10383 X
     Occ.   33  a   ---  Virt.   45  a   -0.12212 X
     Occ.   34  a   ---  Virt.   40  a    0.07214 X
     Occ.   34  a   ---  Virt.   41  a   -0.21810 X
     Occ.   34  a   ---  Virt.   42  a   -0.05186 X
     Occ.   34  a   ---  Virt.   43  a   -0.07685 X
     Occ.   34  a   ---  Virt.   44  a    0.24168 X
     Occ.   34  a   ---  Virt.   45  a   -0.07705 X
     Occ.   35  a   ---  Virt.   40  a    0.10920 X
     Occ.   35  a   ---  Virt.   41  a    0.10980 X
     Occ.   35  a   ---  Virt.   42  a   -0.21103 X
     Occ.   35  a   ---  Virt.   43  a    0.06228 X
     Occ.   35  a   ---  Virt.   44  a   -0.09381 X
     Occ.   35  a   ---  Virt.   45  a   -0.27223 X
     Occ.   36  a   ---  Virt.   52  a    0.18399 X
     Occ.   36  a   ---  Virt.   53  a   -0.11702 X
     Occ.   36  a   ---  Virt.   54  a   -0.05288 X
     Occ.   37  a   ---  Virt.   53  a   -0.17519 X
     Occ.   38  a   ---  Virt.   52  a   -0.13148 X
     Occ.   38  a   ---  Virt.   53  a   -0.08963 X

              Target root =      1
          Target symmetry = none
      Ground state energy =   -390.387738243112
        Excitation energy =      0.338653511666
     Excited state energy =   -390.049084731446

  stored tddft:energy   -390.04908473144593     
 fn_civecs: ./adamant.civecs_singlet                                                                                                                                                                                                                                        
  open iostat                     0

  CI vectors are stored in ./adamant.civecs_singlet        

 Task  times  cpu:      347.9s     wall:      347.9s


                                NWChem Input Module
                                -------------------



  Limits (a.u.) specified for the density plot:
  ---------------------------------------------

        From        To      # of spacings
X    -9.44863     9.44863        50
Y    -9.44863     9.44863        50
Z    -9.44863     9.44863        50

  Total number of grid points =                132651

  1-st set of MOs      : ./adamant.movecs
  CIVECS file     : adamant.civecs_singlet
  Output is written to : root-1.cube
  Type of picture      : CHARGE DENSITY
  Format used          : Gaussian9x Cube
  Spin                 : TOTAL   
  The density is computed using all orbitals
  The density is computed on the specified grid
  Grid minima (bohr)  -9.448633 -9.448633 -9.448633
  Grid maxima (bohr)   9.448633  9.448633  9.448633
  int_init: cando_txs set to always be  F
  Root:                     1
  *** tmom(2)***:    3.4928451729594294E-002
  *** tmom(3)***:    6.5502009845598716E-002
  *** tmom(4)***:    7.7363815537495037E-002
  int_init: cando_txs set to always be  F
  max element    1.6368000626097626E-002

  Tol_rho              =                    0.10000E-39
  Sum of elements      =                        0.00000
  Integration volume   =                        0.05399
  Integrated Charge    =                        0.00000

 Task  times  cpu:        0.2s     wall:        0.2s


                                NWChem Input Module
                                -------------------


 Summary of allocated global arrays
-----------------------------------
  No active global arrays


MA_summarize_allocated_blocks: starting scan ...
MA_summarize_allocated_blocks: scan completed: 0 heap blocks, 0 stack blocks
MA usage statistics:

	allocation statistics:
					      heap	     stack
					      ----	     -----
	current number of blocks	         0	         0
	maximum number of blocks	        17	        60
	current total bytes		         0	         0
	maximum total bytes		   1878464	  22521768
	maximum total K-bytes		      1879	     22522
	maximum total M-bytes		         2	        23


                                     CITATION
                                     --------
                Please cite the following reference when publishing
                           results obtained with NWChem:

          E. Apra, E. J. Bylaska, W. A. de Jong, N. Govind, K. Kowalski,
       T. P. Straatsma, M. Valiev, H. J. J. van Dam, Y. Alexeev, J. Anchell,
       V. Anisimov, F. W. Aquino, R. Atta-Fynn, J. Autschbach, N. P. Bauman,
     J. C. Becca, D. E. Bernholdt, K. Bhaskaran-Nair, S. Bogatko, P. Borowski,
         J. Boschen, J. Brabec, A. Bruner, E. Cauet, Y. Chen, G. N. Chuev,
      C. J. Cramer, J. Daily, M. J. O. Deegan, T. H. Dunning Jr., M. Dupuis,
   K. G. Dyall, G. I. Fann, S. A. Fischer, A. Fonari, H. Fruchtl, L. Gagliardi,
      J. Garza, N. Gawande, S. Ghosh, K. Glaesemann, A. W. Gotz, J. Hammond,
       V. Helms, E. D. Hermes, K. Hirao, S. Hirata, M. Jacquelin, L. Jensen,
   B. G. Johnson, H. Jonsson, R. A. Kendall, M. Klemm, R. Kobayashi, V. Konkov,
      S. Krishnamoorthy, M. Krishnan, Z. Lin, R. D. Lins, R. J. Littlefield,
      A. J. Logsdail, K. Lopata, W. Ma, A. V. Marenich, J. Martin del Campo,
   D. Mejia-Rodriguez, J. E. Moore, J. M. Mullin, T. Nakajima, D. R. Nascimento,
    J. A. Nichols, P. J. Nichols, J. Nieplocha, A. Otero-de-la-Roza, B. Palmer,
    A. Panyala, T. Pirojsirikul, B. Peng, R. Peverati, J. Pittner, L. Pollack,
   R. M. Richard, P. Sadayappan, G. C. Schatz, W. A. Shelton, D. W. Silverstein,
   D. M. A. Smith, T. A. Soares, D. Song, M. Swart, H. L. Taylor, G. S. Thomas,
            V. Tipparaju, D. G. Truhlar, K. Tsemekhman, T. Van Voorhis,
      A. Vazquez-Mayagoitia, P. Verma, O. Villa, A. Vishnu, K. D. Vogiatzis,
        D. Wang, J. H. Weare, M. J. Williamson, T. L. Windus, K. Wolinski,
        A. T. Wong, Q. Wu, C. Yang, Q. Yu, M. Zacharias, Z. Zhang, Y. Zhao,
                                and R. J. Harrison
                        "NWChem: Past, present, and future
                         J. Chem. Phys. 152, 184102 (2020)
                               doi:10.1063/5.0004997

                                      AUTHORS
                                      -------
  E. Apra, E. J. Bylaska, N. Govind, K. Kowalski, M. Valiev, D. Mejia-Rodriguez,
       A. Kunitsa, N. P. Bauman, A. Panyala, W. A. de Jong, T. P. Straatsma,
   H. J. J. van Dam, D. Wang, T. L. Windus, J. Hammond, J. Autschbach, A. Woods,
    K. Bhaskaran-Nair, J. Brabec, K. Lopata, S. A. Fischer, S. Krishnamoorthy,
     M. Jacquelin, W. Ma, M. Klemm, O. Villa, Y. Chen, V. Anisimov, F. Aquino,
     S. Hirata, M. T. Hackler, E. Hermes, L. Jensen, J. E. Moore, J. C. Becca,
      V. Konjkov, T. Risthaus, M. Malagoli, A. Marenich, A. Otero-de-la-Roza,
        J. Mullin, P. Nichols, R. Peverati, J. Pittner, Y. Zhao, P.-D. Fan,
        A. Fonari, M. J. Williamson, R. J. Harrison, J. R. Rehr, M. Dupuis,
     D. Silverstein, D. M. A. Smith, J. Nieplocha, V. Tipparaju, M. Krishnan,
     B. E. Van Kuiken, A. Vazquez-Mayagoitia, M. Swart, Q. Wu, T. Van Voorhis,
     A. A. Auer, M. Nooijen, L. D. Crosby, E. Brown, G. Cisneros, G. I. Fann,
   H. Fruchtl, J. Garza, K. Hirao, R. A. Kendall, J. A. Nichols, K. Tsemekhman,
    K. Wolinski, J. Anchell, D. E. Bernholdt, P. Borowski, T. Clark, D. Clerc,
   H. Dachsel, M. J. O. Deegan, K. Dyall, D. Elwood, E. Glendening, M. Gutowski,
   A. C. Hess, J. Jaffe, B. G. Johnson, J. Ju, R. Kobayashi, R. Kutteh, Z. Lin,
   R. Littlefield, X. Long, B. Meng, T. Nakajima, S. Niu, L. Pollack, M. Rosing,
   K. Glaesemann, G. Sandrone, M. Stave, H. Taylor, G. Thomas, J. H. van Lenthe,
                               A. T. Wong, Z. Zhang.

 Total times  cpu:      350.3s     wall:      350.3s
