 argument  1 = input.nw
  NWChem w/ OpenMP: maximum threads =    1



============================== echo of input deck ==============================
echo
title "total energy of benzene, B3LYP"

start c6h6-b3lyp

geometry
 C    0.99261000     0.99261000     0.00000000
 C   -1.35593048     0.36332048     0.00000000
 C    0.36332048    -1.35593048     0.00000000
 C   -0.99261000    -0.99261000     0.00000000
 C    1.35593048    -0.36332048     0.00000000
 C   -0.36332048     1.35593048     0.00000000
 H    1.75792000     1.75792000     0.00000000
 H   -2.40136338     0.64344338     0.00000000
 H    0.64344338    -2.40136338     0.00000000
 H   -1.75792000    -1.75792000     0.00000000
 H    2.40136338    -0.64344338     0.00000000
 H   -0.64344338     2.40136338     0.00000000
end

scf
  singlet
  rhf
  vectors  output c6h6.movecs
end

basis
* library 6-31G
end

task scf energy


dplot
  TITLE HOMO
  vectors c6h6.movecs
   LimitXYZ
 -5.0 5.0 30
 -5.0 5.0 30
 -5.0 5.0 30
  spin total
  orbitals view
  1
  21
  gaussian
  output homo.cube
end
task dplot


dplot
  TITLE LUMO
  vectors c6h6.movecs
   LimitXYZ
 -5.0 5.0 30
 -5.0 5.0 30
 -5.0 5.0 30
  spin total
  orbitals view
  1
  22
  gaussian
  output lumo.cube
end
task dplot



================================================================================


                                         
                                         


             Northwest Computational Chemistry Package (NWChem) 7.2.1
             --------------------------------------------------------


                    Environmental Molecular Sciences Laboratory
                       Pacific Northwest National Laboratory
                                Richland, WA 99352

                              Copyright (c) 1994-2022
                       Pacific Northwest National Laboratory
                            Battelle Memorial Institute

             NWChem is an open-source computational chemistry package
                        distributed under the terms of the
                      Educational Community License (ECL) 2.0
             A copy of the license is included with this distribution
                              in the LICENSE.TXT file

                                  ACKNOWLEDGMENT
                                  --------------

            This software and its documentation were developed at the
            EMSL at Pacific Northwest National Laboratory, a multiprogram
            national laboratory, operated for the U.S. Department of Energy
            by Battelle under Contract Number DE-AC05-76RL01830. Support
            for this work was provided by the Department of Energy Office
            of Biological and Environmental Research, Office of Basic
            Energy Sciences, and the Office of Advanced Scientific Computing.


           Job information
           ---------------

    hostname        = cpn-f13-36.core.ccr.buffalo.edu
    program         = nwchem
    date            = Thu Feb  8 10:08:36 2024

    compiled        = Wed_Jan_17_15:19:23_2024
    source          = /projects/academic/cyberwksp21/SOFTWARE_NEW_ENV/nwchem
    nwchem branch   = 7.2.1
    nwchem revision = v7.2.0-beta1-968-g8bfd0073a6
    ga revision     = 5.8.0
    use scalapack   = T
    input           = input.nw
    prefix          = c6h6-b3lyp.
    data base       = ./c6h6-b3lyp.db
    status          = startup
    nproc           =        3
    time left       =     -1s



           Memory information
           ------------------

    heap     =     26214396 doubles =      200.0 Mbytes
    stack    =     26214401 doubles =      200.0 Mbytes
    global   =     52428800 doubles =      400.0 Mbytes (distinct from heap & stack)
    total    =    104857597 doubles =      800.0 Mbytes
    verify   = yes
    hardfail = no 


           Directory information
           ---------------------

  0 permanent = .
  0 scratch   = .




                                NWChem Input Module
                                -------------------


                          total energy of benzene, B3LYP
                          ------------------------------

 Scaling coordinates for geometry "geometry" by  1.889725989
 (inverse scale =  0.529177249)

 D6H symmetry detected

          ------
          auto-z
          ------
  no constraints, skipping    0.0000000000000000     
  no constraints, skipping    0.0000000000000000     


                             Geometry "geometry" -> ""
                             -------------------------

 Output coordinates in angstroms (scale by  1.889725989 to convert to a.u.)

  No.       Tag          Charge          X              Y              Z
 ---- ---------------- ---------- -------------- -------------- --------------
    1 C                    6.0000     0.99261000     0.99261000     0.00000000
    2 C                    6.0000    -1.35593048     0.36332048     0.00000000
    3 C                    6.0000     0.36332048    -1.35593048     0.00000000
    4 C                    6.0000    -0.99261000    -0.99261000     0.00000000
    5 C                    6.0000     1.35593048    -0.36332048     0.00000000
    6 C                    6.0000    -0.36332048     1.35593048     0.00000000
    7 H                    1.0000     1.75792000     1.75792000     0.00000000
    8 H                    1.0000    -2.40136338     0.64344338     0.00000000
    9 H                    1.0000     0.64344338    -2.40136338     0.00000000
   10 H                    1.0000    -1.75792000    -1.75792000     0.00000000
   11 H                    1.0000     2.40136338    -0.64344338     0.00000000
   12 H                    1.0000    -0.64344338     2.40136338     0.00000000

      Atomic Mass 
      ----------- 

      C                 12.000000
      H                  1.007825


 Effective nuclear repulsion energy (a.u.)     202.4405395545

            Nuclear Dipole moment (a.u.) 
            ----------------------------
        X                 Y               Z
 ---------------- ---------------- ----------------
     0.0000000000     0.0000000000     0.0000000000

      Symmetry information
      --------------------

 Group name             D6h       
 Group number             30
 Group order              24
 No. of unique centers     2

      Symmetry unique atoms

     1    7



                                Z-matrix (autoz)
                                -------- 

 Units are Angstrom for bonds and degrees for angles

      Type          Name      I     J     K     L     M      Value
      ----------- --------  ----- ----- ----- ----- ----- ----------
    1 Stretch                  1     5                       1.40376
    2 Stretch                  1     6                       1.40376
    3 Stretch                  1     7                       1.08231
    4 Stretch                  2     4                       1.40376
    5 Stretch                  2     6                       1.40376
    6 Stretch                  2     8                       1.08231
    7 Stretch                  3     4                       1.40376
    8 Stretch                  3     5                       1.40376
    9 Stretch                  3     9                       1.08231
   10 Stretch                  4    10                       1.08231
   11 Stretch                  5    11                       1.08231
   12 Stretch                  6    12                       1.08231
   13 Bend                     1     5     3               120.00000
   14 Bend                     1     5    11               120.00000
   15 Bend                     1     6     2               120.00000
   16 Bend                     1     6    12               120.00000
   17 Bend                     2     4     3               120.00000
   18 Bend                     2     4    10               120.00000
   19 Bend                     2     6    12               120.00000
   20 Bend                     3     4    10               120.00000
   21 Bend                     3     5    11               120.00000
   22 Bend                     4     2     6               120.00000
   23 Bend                     4     2     8               120.00000
   24 Bend                     4     3     5               120.00000
   25 Bend                     4     3     9               120.00000
   26 Bend                     5     1     6               120.00000
   27 Bend                     5     1     7               120.00000
   28 Bend                     5     3     9               120.00000
   29 Bend                     6     1     7               120.00000
   30 Bend                     6     2     8               120.00000
   31 Torsion                  1     5     3     4           0.00000
   32 Torsion                  1     5     3     9         180.00000
   33 Torsion                  1     6     2     4           0.00000
   34 Torsion                  1     6     2     8         180.00000
   35 Torsion                  2     4     3     5           0.00000
   36 Torsion                  2     4     3     9         180.00000
   37 Torsion                  2     6     1     5           0.00000
   38 Torsion                  2     6     1     7         180.00000
   39 Torsion                  3     4     2     6           0.00000
   40 Torsion                  3     4     2     8         180.00000
   41 Torsion                  3     5     1     6           0.00000
   42 Torsion                  3     5     1     7         180.00000
   43 Torsion                  4     2     6    12         180.00000
   44 Torsion                  4     3     5    11         180.00000
   45 Torsion                  5     1     6    12         180.00000
   46 Torsion                  5     3     4    10         180.00000
   47 Torsion                  6     1     5    11         180.00000
   48 Torsion                  6     2     4    10         180.00000
   49 Torsion                  7     1     5    11           0.00000
   50 Torsion                  7     1     6    12          -0.00000
   51 Torsion                  8     2     4    10          -0.00000
   52 Torsion                  8     2     6    12           0.00000
   53 Torsion                  9     3     4    10           0.00000
   54 Torsion                  9     3     5    11           0.00000


            XYZ format geometry
            -------------------
    12
 geometry
 C                     0.99261000     0.99261000     0.00000000
 C                    -1.35593048     0.36332048     0.00000000
 C                     0.36332048    -1.35593048     0.00000000
 C                    -0.99261000    -0.99261000     0.00000000
 C                     1.35593048    -0.36332048     0.00000000
 C                    -0.36332048     1.35593048     0.00000000
 H                     1.75792000     1.75792000     0.00000000
 H                    -2.40136338     0.64344338     0.00000000
 H                     0.64344338    -2.40136338     0.00000000
 H                    -1.75792000    -1.75792000     0.00000000
 H                     2.40136338    -0.64344338     0.00000000
 H                    -0.64344338     2.40136338     0.00000000

 ==============================================================================
                                internuclear distances
 ------------------------------------------------------------------------------
       center one      |      center two      | atomic units |  angstroms
 ------------------------------------------------------------------------------
    4 C                |   2 C                |     2.65273  |     1.40376
    4 C                |   3 C                |     2.65273  |     1.40376
    5 C                |   1 C                |     2.65273  |     1.40376
    5 C                |   3 C                |     2.65273  |     1.40376
    6 C                |   1 C                |     2.65273  |     1.40376
    6 C                |   2 C                |     2.65273  |     1.40376
    7 H                |   1 C                |     2.04527  |     1.08231
    8 H                |   2 C                |     2.04527  |     1.08231
    9 H                |   3 C                |     2.04527  |     1.08231
   10 H                |   4 C                |     2.04527  |     1.08231
   11 H                |   5 C                |     2.04527  |     1.08231
   12 H                |   6 C                |     2.04527  |     1.08231
 ------------------------------------------------------------------------------
                         number of included internuclear distances:         12
 ==============================================================================



 ==============================================================================
                                 internuclear angles
 ------------------------------------------------------------------------------
        center 1       |       center 2       |       center 3       |  degrees
 ------------------------------------------------------------------------------
    5 C                |   1 C                |   6 C                |   120.00
    5 C                |   1 C                |   7 H                |   120.00
    6 C                |   1 C                |   7 H                |   120.00
    4 C                |   2 C                |   6 C                |   120.00
    4 C                |   2 C                |   8 H                |   120.00
    6 C                |   2 C                |   8 H                |   120.00
    4 C                |   3 C                |   5 C                |   120.00
    4 C                |   3 C                |   9 H                |   120.00
    5 C                |   3 C                |   9 H                |   120.00
    2 C                |   4 C                |   3 C                |   120.00
    2 C                |   4 C                |  10 H                |   120.00
    3 C                |   4 C                |  10 H                |   120.00
    1 C                |   5 C                |   3 C                |   120.00
    1 C                |   5 C                |  11 H                |   120.00
    3 C                |   5 C                |  11 H                |   120.00
    1 C                |   6 C                |   2 C                |   120.00
    1 C                |   6 C                |  12 H                |   120.00
    2 C                |   6 C                |  12 H                |   120.00
 ------------------------------------------------------------------------------
                            number of included internuclear angles:         18
 ==============================================================================





 Summary of "ao basis" -> "" (cartesian)
 ------------------------------------------------------------------------------
       Tag                 Description            Shells   Functions and Types
 ---------------- ------------------------------  ------  ---------------------
 *                           6-31G                    on all atoms 


                      Basis "ao basis" -> "ao basis" (cartesian)
                      -----
  C (Carbon)
  ----------
            Exponent  Coefficients 
       -------------- ---------------------------------------------------------
  1 S  3.04752490E+03  0.001835
  1 S  4.57369510E+02  0.014037
  1 S  1.03948690E+02  0.068843
  1 S  2.92101550E+01  0.232184
  1 S  9.28666300E+00  0.467941
  1 S  3.16392700E+00  0.362312

  2 S  7.86827240E+00 -0.119332
  2 S  1.88128850E+00 -0.160854
  2 S  5.44249300E-01  1.143456

  3 P  7.86827240E+00  0.068999
  3 P  1.88128850E+00  0.316424
  3 P  5.44249300E-01  0.744308

  4 S  1.68714400E-01  1.000000

  5 P  1.68714400E-01  1.000000

  H (Hydrogen)
  ------------
            Exponent  Coefficients 
       -------------- ---------------------------------------------------------
  1 S  1.87311370E+01  0.033495
  1 S  2.82539370E+00  0.234727
  1 S  6.40121700E-01  0.813757

  2 S  1.61277800E-01  1.000000



 Summary of "ao basis" -> "ao basis" (cartesian)
 ------------------------------------------------------------------------------
       Tag                 Description            Shells   Functions and Types
 ---------------- ------------------------------  ------  ---------------------
 C                           6-31G                   5        9   3s2p
 H                           6-31G                   2        2   2s


                                 NWChem SCF Module
                                 -----------------


                          total energy of benzene, B3LYP



  ao basis        = "ao basis"
  functions       =    66
  atoms           =    12
  closed shells   =    21
  open shells     =     0
  charge          =   0.00
  wavefunction    = RHF 
  input vectors   = atomic
  output vectors  = ./c6h6.movecs
  use symmetry    = T
  symmetry adapt  = T


 Summary of "ao basis" -> "ao basis" (cartesian)
 ------------------------------------------------------------------------------
       Tag                 Description            Shells   Functions and Types
 ---------------- ------------------------------  ------  ---------------------
 C                           6-31G                   5        9   3s2p
 H                           6-31G                   2        2   2s


      Symmetry analysis of basis
      --------------------------

        a1g         7
        a1u         0
        a2g         2
        a2u         2
        b1g         0
        b1u         7
        b2g         2
        b2u         2
        e1g         4
        e1u        18
        e2g        18
        e2u         4


 Forming initial guess at       0.7s


      Superposition of Atomic Density Guess
      -------------------------------------

 Sum of atomic energies:        -228.95092013

      Non-variational initial energy
      ------------------------------

 Total energy =    -233.041719
 1-e energy   =    -707.328976
 2-e energy   =     271.846718
 HOMO         =      -0.283039
 LUMO         =       0.014131


      Symmetry analysis of molecular orbitals - initial
      -------------------------------------------------

  Numbering of irreducible representations: 

     1 a1g         2 a1u         3 a2g         4 a2u         5 b1g     
     6 b1u         7 b2g         8 b2u         9 e1g        10 e1u     
    11 e2g        12 e2u     

  Orbital symmetries:

     1 a1g         2 e1u         3 e1u         4 e2g         5 e2g     
     6 b1u         7 a1g         8 e1u         9 e1u        10 e2g     
    11 e2g        12 a1g        13 b1u        14 b2u        15 e1u     
    16 e1u        17 a2u        18 e2g        19 e2g        20 e1g     
    21 e1g        22 e2u        23 e2u        24 a1g        25 b2g     
    26 e1u        27 e1u        28 e2g        29 e2g        30 b1u     
    31 e2g     


 Starting SCF solution at       0.7s



 ----------------------------------------------
         Quadratically convergent ROHF

 Convergence threshold     :          1.000E-04
 Maximum no. of iterations :           30
 Final Fock-matrix accuracy:          1.000E-07
 ----------------------------------------------

  avail0,avail1,avail0-avail1                212854               212854                    0
  avail0,avail1,avail0-avail1                212854               212854                    0
  avail0,avail1,avail0-avail1                212854               212854                    0
  avail0,avail1,avail0-avail1                212854               212854                    0

 Integral file          = ./c6h6-b3lyp.aoints.0
 Record size in doubles =  65536        No. of integs per rec  =  43688
 Max. records in memory =      4        Max. records in file   =  14977
 No. of bits per label  =      8        No. of bits per value  =     64


 #quartets = 3.917D+04 #integrals = 1.501D+05 #direct =  0.0% #cached =100.0%


File balance: exchanges=     0  moved=     0  time=   0.0


              iter       energy          gnorm     gmax       time
             ----- ------------------- --------- --------- --------
                 1     -230.5706076601  7.09D-01  2.62D-01      0.9
                 2     -230.6218943853  8.73D-02  2.87D-02      0.9
                 3     -230.6226432825  3.97D-03  1.21D-03      1.0
                 4     -230.6226448964  2.47D-06  8.93D-07      1.0


       Final RHF  results 
       ------------------ 

         Total SCF energy =   -230.622644896370
      One-electron energy =   -711.108992991029
      Two-electron energy =    278.045808540137
 Nuclear repulsion energy =    202.440539554522

        Time for solution =      0.3s



       Symmetry analysis of molecular orbitals - final
       -----------------------------------------------

  Numbering of irreducible representations: 

     1 a1g         2 a1u         3 a2g         4 a2u         5 b1g     
     6 b1u         7 b2g         8 b2u         9 e1g        10 e1u     
    11 e2g        12 e2u     

  Orbital symmetries:

     1 a1g         2 e1u         3 e1u         4 e2g         5 e2g     
     6 b1u         7 a1g         8 e1u         9 e1u        10 e2g     
    11 e2g        12 a1g        13 b1u        14 b2u        15 e1u     
    16 e1u        17 a2u        18 e2g        19 e2g        20 e1g     
    21 e1g        22 e2u        23 e2u        24 a1g        25 e1u     
    26 e1u        27 e2g        28 e2g        29 b1u        30 b2g     
    31 e2g     

             Final eigenvalues
             -----------------

              1      
    1  -11.2409
    2  -11.2403
    3  -11.2403
    4  -11.2392
    5  -11.2392
    6  -11.2387
    7   -1.1457
    8   -1.0111
    9   -1.0111
   10   -0.8201
   11   -0.8201
   12   -0.7067
   13   -0.6408
   14   -0.6125
   15   -0.5848
   16   -0.5848
   17   -0.4950
   18   -0.4873
   19   -0.4873
   20   -0.3314
   21   -0.3314
   22    0.1439
   23    0.1439
   24    0.2339
   25    0.2904
   26    0.2904
   27    0.3285
   28    0.3285
   29    0.3342
   30    0.3570
   31    0.4673

                       ROHF Final Molecular Orbital Analysis
                       -------------------------------------

 Vector    7  Occ=2.000000D+00  E=-1.145744D+00  Symmetry=a1g
              MO Center=  1.2D-17,  5.8D-17,  4.3D-51, r^2= 2.1D+00
   Bfn.  Coefficient  Atom+Function         Bfn.  Coefficient  Atom+Function  
  ----- ------------  ---------------      ----- ------------  ---------------
     2      0.182247   1 C  s                11      0.182247   2 C  s         
    20      0.182247   3 C  s                29      0.182247   4 C  s         
    38      0.182247   5 C  s                47      0.182247   6 C  s         

 Vector    8  Occ=2.000000D+00  E=-1.011100D+00  Symmetry=e1u
              MO Center= -2.2D-16, -3.5D-17,  1.9D-19, r^2= 2.9D+00
   Bfn.  Coefficient  Atom+Function         Bfn.  Coefficient  Atom+Function  
  ----- ------------  ---------------      ----- ------------  ---------------
     2      0.256045   1 C  s                29     -0.256045   4 C  s         
     6      0.193841   1 C  s                33     -0.193841   4 C  s         
    11     -0.159002   2 C  s                38      0.159002   5 C  s         

 Vector    9  Occ=2.000000D+00  E=-1.011100D+00  Symmetry=e1u
              MO Center=  4.9D-17, -1.4D-16,  3.2D-20, r^2= 2.9D+00
   Bfn.  Coefficient  Atom+Function         Bfn.  Coefficient  Atom+Function  
  ----- ------------  ---------------      ----- ------------  ---------------
    20      0.239627   3 C  s                47     -0.239627   6 C  s         
    11     -0.203855   2 C  s                38      0.203855   5 C  s         
    24      0.181412   3 C  s                51     -0.181412   6 C  s         
    15     -0.154330   2 C  s                42      0.154330   5 C  s         

 Vector   10  Occ=2.000000D+00  E=-8.200731D-01  Symmetry=e2g
              MO Center=  3.6D-17,  5.1D-17,  2.9D-19, r^2= 3.7D+00
   Bfn.  Coefficient  Atom+Function         Bfn.  Coefficient  Atom+Function  
  ----- ------------  ---------------      ----- ------------  ---------------
    11      0.194063   2 C  s                38      0.194063   5 C  s         
    15      0.174981   2 C  s                42      0.174981   5 C  s         
    20     -0.157511   3 C  s                47     -0.157511   6 C  s         
     4     -0.151130   1 C  py               31      0.151130   4 C  py        

 Vector   11  Occ=2.000000D+00  E=-8.200731D-01  Symmetry=e2g
              MO Center= -1.3D-17, -1.8D-17,  2.9D-34, r^2= 3.7D+00
   Bfn.  Coefficient  Atom+Function         Bfn.  Coefficient  Atom+Function  
  ----- ------------  ---------------      ----- ------------  ---------------
     2      0.202981   1 C  s                29      0.202981   4 C  s         
    13     -0.192626   2 C  py               40      0.192626   5 C  py        
     6      0.183022   1 C  s                33      0.183022   4 C  s         
    21     -0.162340   3 C  px               48      0.162340   6 C  px        

 Vector   12  Occ=2.000000D+00  E=-7.067100D-01  Symmetry=a1g
              MO Center= -3.0D-17, -7.9D-17,  1.7D-35, r^2= 4.2D+00
   Bfn.  Coefficient  Atom+Function         Bfn.  Coefficient  Atom+Function  
  ----- ------------  ---------------      ----- ------------  ---------------
    12      0.187726   2 C  px               22      0.187726   3 C  py        
    39     -0.187726   5 C  px               49     -0.187726   6 C  py        

 Vector   13  Occ=2.000000D+00  E=-6.407849D-01  Symmetry=b1u
              MO Center=  7.9D-17, -9.6D-18, -1.4D-36, r^2= 5.3D+00
   Bfn.  Coefficient  Atom+Function         Bfn.  Coefficient  Atom+Function  
  ----- ------------  ---------------      ----- ------------  ---------------
    16      0.150907   2 C  px               26      0.150907   3 C  py        
    43      0.150907   5 C  px               53      0.150907   6 C  py        

 Vector   14  Occ=2.000000D+00  E=-6.125219D-01  Symmetry=b2u
              MO Center=  8.2D-18, -5.1D-18, -1.7D-50, r^2= 2.7D+00
   Bfn.  Coefficient  Atom+Function         Bfn.  Coefficient  Atom+Function  
  ----- ------------  ---------------      ----- ------------  ---------------
    13      0.265254   2 C  py               21     -0.265254   3 C  px        
    40      0.265254   5 C  py               48     -0.265254   6 C  px        
     3      0.194180   1 C  px                4     -0.194180   1 C  py        
    30      0.194180   4 C  px               31     -0.194180   4 C  py        

 Vector   15  Occ=2.000000D+00  E=-5.847770D-01  Symmetry=e1u
              MO Center= -6.8D-17, -2.7D-17, -8.1D-35, r^2= 4.1D+00
   Bfn.  Coefficient  Atom+Function         Bfn.  Coefficient  Atom+Function  
  ----- ------------  ---------------      ----- ------------  ---------------
    22      0.255646   3 C  py               49      0.255646   6 C  py        
     3      0.205674   1 C  px               30      0.205674   4 C  px        
    59     -0.153957   9 H  s                65      0.153957  12 H  s         

 Vector   16  Occ=2.000000D+00  E=-5.847770D-01  Symmetry=e1u
              MO Center= -6.3D-17,  6.0D-17, -3.2D-37, r^2= 4.1D+00
   Bfn.  Coefficient  Atom+Function         Bfn.  Coefficient  Atom+Function  
  ----- ------------  ---------------      ----- ------------  ---------------
    12      0.284984   2 C  px               39      0.284984   5 C  px        
     4      0.172637   1 C  py               31      0.172637   4 C  py        
    57     -0.167308   8 H  s                63      0.167308  11 H  s         

 Vector   17  Occ=2.000000D+00  E=-4.950240D-01  Symmetry=a2u
              MO Center=  8.1D-17,  4.2D-17,  8.6D-19, r^2= 2.8D+00
   Bfn.  Coefficient  Atom+Function         Bfn.  Coefficient  Atom+Function  
  ----- ------------  ---------------      ----- ------------  ---------------
     5      0.210779   1 C  pz               14      0.210779   2 C  pz        
    23      0.210779   3 C  pz               32      0.210779   4 C  pz        
    41      0.210779   5 C  pz               50      0.210779   6 C  pz        

 Vector   18  Occ=2.000000D+00  E=-4.872999D-01  Symmetry=e2g
              MO Center=  1.5D-16, -1.2D-16, -8.6D-36, r^2= 4.1D+00
   Bfn.  Coefficient  Atom+Function         Bfn.  Coefficient  Atom+Function  
  ----- ------------  ---------------      ----- ------------  ---------------
    13      0.219878   2 C  py               40     -0.219878   5 C  py        
    22      0.193306   3 C  py               49     -0.193306   6 C  py        
     4      0.191075   1 C  py               31     -0.191075   4 C  py        
    55      0.165716   7 H  s                61      0.165716  10 H  s         
    21      0.152442   3 C  px               48     -0.152442   6 C  px        

 Vector   19  Occ=2.000000D+00  E=-4.872999D-01  Symmetry=e2g
              MO Center=  5.3D-17, -2.9D-17, -6.9D-36, r^2= 4.1D+00
   Bfn.  Coefficient  Atom+Function         Bfn.  Coefficient  Atom+Function  
  ----- ------------  ---------------      ----- ------------  ---------------
     3      0.211764   1 C  px               30     -0.211764   4 C  px        
    21      0.209534   3 C  px               48     -0.209534   6 C  px        
    12      0.182961   2 C  px               39     -0.182961   5 C  px        
    57     -0.159633   8 H  s                63     -0.159633  11 H  s         
     4     -0.151155   1 C  py               31      0.151155   4 C  py        

 Vector   20  Occ=2.000000D+00  E=-3.313773D-01  Symmetry=e1g
              MO Center= -2.1D-17, -5.9D-18, -4.1D-19, r^2= 3.1D+00
   Bfn.  Coefficient  Atom+Function         Bfn.  Coefficient  Atom+Function  
  ----- ------------  ---------------      ----- ------------  ---------------
     5      0.311036   1 C  pz               32     -0.311036   4 C  pz        
     9      0.267803   1 C  pz               36     -0.267803   4 C  pz        
    23     -0.204394   3 C  pz               50      0.204394   6 C  pz        
    27     -0.175984   3 C  pz               54      0.175984   6 C  pz        

 Vector   21  Occ=2.000000D+00  E=-3.313773D-01  Symmetry=e1g
              MO Center= -3.9D-17,  9.8D-18,  7.2D-20, r^2= 3.1D+00
   Bfn.  Coefficient  Atom+Function         Bfn.  Coefficient  Atom+Function  
  ----- ------------  ---------------      ----- ------------  ---------------
    14      0.297583   2 C  pz               41     -0.297583   5 C  pz        
    18      0.256221   2 C  pz               45     -0.256221   5 C  pz        
    23     -0.241147   3 C  pz               50      0.241147   6 C  pz        
    27     -0.207628   3 C  pz               54      0.207628   6 C  pz        

 Vector   22  Occ=0.000000D+00  E= 1.439407D-01  Symmetry=e2u
              MO Center= -1.3D-16,  1.1D-16, -4.6D-19, r^2= 3.6D+00
   Bfn.  Coefficient  Atom+Function         Bfn.  Coefficient  Atom+Function  
  ----- ------------  ---------------      ----- ------------  ---------------
    18      0.582074   2 C  pz               45      0.582074   5 C  pz        
    14      0.314107   2 C  pz               41      0.314107   5 C  pz        
    27     -0.300486   3 C  pz               54     -0.300486   6 C  pz        
     9     -0.281589   1 C  pz               36     -0.281589   4 C  pz        
    23     -0.162152   3 C  pz               50     -0.162152   6 C  pz        

 Vector   23  Occ=0.000000D+00  E= 1.439407D-01  Symmetry=e2u
              MO Center=  8.7D-18, -1.1D-17,  3.2D-19, r^2= 3.6D+00
   Bfn.  Coefficient  Atom+Function         Bfn.  Coefficient  Atom+Function  
  ----- ------------  ---------------      ----- ------------  ---------------
     9      0.509546   1 C  pz               36      0.509546   4 C  pz        
    27     -0.498636   3 C  pz               54     -0.498636   6 C  pz        
     5      0.274968   1 C  pz               32      0.274968   4 C  pz        
    23     -0.269080   3 C  pz               50     -0.269080   6 C  pz        

 Vector   24  Occ=0.000000D+00  E= 2.339463D-01  Symmetry=a1g
              MO Center=  6.6D-17,  4.6D-16,  5.4D-19, r^2= 8.7D+00
   Bfn.  Coefficient  Atom+Function         Bfn.  Coefficient  Atom+Function  
  ----- ------------  ---------------      ----- ------------  ---------------
    56      0.795836   7 H  s                58      0.795836   8 H  s         
    60      0.795836   9 H  s                62      0.795836  10 H  s         
    64      0.795836  11 H  s                66      0.795836  12 H  s         
     6     -0.567779   1 C  s                15     -0.567779   2 C  s         
    24     -0.567779   3 C  s                33     -0.567779   4 C  s         

 Vector   25  Occ=0.000000D+00  E= 2.903820D-01  Symmetry=e1u
              MO Center=  5.5D-16, -2.4D-15, -1.6D-22, r^2= 9.5D+00
   Bfn.  Coefficient  Atom+Function         Bfn.  Coefficient  Atom+Function  
  ----- ------------  ---------------      ----- ------------  ---------------
    56      1.298738   7 H  s                62     -1.298738  10 H  s         
     6     -1.049725   1 C  s                33      1.049725   4 C  s         
    60     -0.946524   9 H  s                66      0.946524  12 H  s         
    24      0.765042   3 C  s                51     -0.765042   6 C  s         
     7     -0.519125   1 C  px               34     -0.519125   4 C  px        

 Vector   26  Occ=0.000000D+00  E= 2.903820D-01  Symmetry=e1u
              MO Center=  1.3D-16,  2.7D-16,  1.1D-20, r^2= 9.5D+00
   Bfn.  Coefficient  Atom+Function         Bfn.  Coefficient  Atom+Function  
  ----- ------------  ---------------      ----- ------------  ---------------
    58      1.296302   8 H  s                64     -1.296302  11 H  s         
    15     -1.047756   2 C  s                42      1.047756   5 C  s         
    60     -0.953177   9 H  s                66      0.953177  12 H  s         
    24      0.770420   3 C  s                51     -0.770420   6 C  s         
    16      0.661448   2 C  px               43      0.661448   5 C  px        

 Vector   27  Occ=0.000000D+00  E= 3.285185D-01  Symmetry=e2g
              MO Center= -1.1D-15,  9.4D-15, -6.6D-18, r^2= 9.4D+00
   Bfn.  Coefficient  Atom+Function         Bfn.  Coefficient  Atom+Function  
  ----- ------------  ---------------      ----- ------------  ---------------
     6      1.378234   1 C  s                33      1.378234   4 C  s         
    24     -1.364895   3 C  s                51     -1.364895   6 C  s         
    56     -1.219361   7 H  s                62     -1.219361  10 H  s         
    60      1.207559   9 H  s                66      1.207559  12 H  s         
    26      0.644020   3 C  py               53     -0.644020   6 C  py        

 Vector   28  Occ=0.000000D+00  E= 3.285185D-01  Symmetry=e2g
              MO Center= -6.8D-16,  2.0D-15, -3.4D-30, r^2= 9.4D+00
   Bfn.  Coefficient  Atom+Function         Bfn.  Coefficient  Atom+Function  
  ----- ------------  ---------------      ----- ------------  ---------------
    15      1.583746   2 C  s                42      1.583746   5 C  s         
    58     -1.401183   8 H  s                64     -1.401183  11 H  s         
    24     -0.803425   3 C  s                51     -0.803425   6 C  s         
     6     -0.780321   1 C  s                33     -0.780321   4 C  s         
    60      0.710812   9 H  s                66      0.710812  12 H  s         

 Vector   29  Occ=0.000000D+00  E= 3.341848D-01  Symmetry=b1u
              MO Center= -2.9D-15, -5.1D-15, -3.9D-31, r^2= 1.1D+01
   Bfn.  Coefficient  Atom+Function         Bfn.  Coefficient  Atom+Function  
  ----- ------------  ---------------      ----- ------------  ---------------
    16      1.443121   2 C  px               26      1.443121   3 C  py        
    43      1.443121   5 C  px               53      1.443121   6 C  py        
    56      1.356284   7 H  s                58      1.356284   8 H  s         
    60      1.356284   9 H  s                62     -1.356284  10 H  s         
    64     -1.356284  11 H  s                66     -1.356284  12 H  s         

 Vector   30  Occ=0.000000D+00  E= 3.569572D-01  Symmetry=b2g
              MO Center=  2.3D-16,  2.0D-16, -9.1D-33, r^2= 4.0D+00
   Bfn.  Coefficient  Atom+Function         Bfn.  Coefficient  Atom+Function  
  ----- ------------  ---------------      ----- ------------  ---------------
     9      0.671372   1 C  pz               18      0.671372   2 C  pz        
    27      0.671372   3 C  pz               36     -0.671372   4 C  pz        
    45     -0.671372   5 C  pz               54     -0.671372   6 C  pz        
     5      0.240819   1 C  pz               14      0.240819   2 C  pz        
    23      0.240819   3 C  pz               32     -0.240819   4 C  pz        

 Vector   31  Occ=0.000000D+00  E= 4.673295D-01  Symmetry=e2g
              MO Center= -8.0D-16, -7.6D-16, -3.4D-31, r^2= 5.8D+00
   Bfn.  Coefficient  Atom+Function         Bfn.  Coefficient  Atom+Function  
  ----- ------------  ---------------      ----- ------------  ---------------
    15      2.200000   2 C  s                42      2.200000   5 C  s         
    16      1.702737   2 C  px               43     -1.702737   5 C  px        
     8      1.210333   1 C  py               35     -1.210333   4 C  py        
     6     -1.109466   1 C  s                33     -1.109466   4 C  s         
    24     -1.090533   3 C  s                51     -1.090533   6 C  s         

 Vector   32  Occ=0.000000D+00  E= 4.673295D-01  Symmetry=e2g
              MO Center=  2.2D-13,  4.9D-14, -2.1D-17, r^2= 5.8D+00
   Bfn.  Coefficient  Atom+Function         Bfn.  Coefficient  Atom+Function  
  ----- ------------  ---------------      ----- ------------  ---------------
    24     -1.910721   3 C  s                51     -1.910721   6 C  s         
     6      1.899790   1 C  s                33      1.899790   4 C  s         
     7     -1.416629   1 C  px               34      1.416629   4 C  px        
    26     -1.357776   3 C  py               53      1.357776   6 C  py        
    17      0.917240   2 C  py               44     -0.917240   5 C  py        

 Vector   33  Occ=0.000000D+00  E= 4.917038D-01  Symmetry=e1u
              MO Center= -1.7D-13, -1.1D-13,  5.9D-21, r^2= 5.3D+00
   Bfn.  Coefficient  Atom+Function         Bfn.  Coefficient  Atom+Function  
  ----- ------------  ---------------      ----- ------------  ---------------
    25     -2.098324   3 C  px               52     -2.098324   6 C  px        
     6      2.019616   1 C  s                33     -2.019616   4 C  s         
    15     -1.604639   2 C  s                42      1.604639   5 C  s         
    17     -1.362492   2 C  py               44     -1.362492   5 C  py        
     7     -0.703590   1 C  px               34     -0.703590   4 C  px        

 Vector   34  Occ=0.000000D+00  E= 4.917038D-01  Symmetry=e1u
              MO Center= -5.7D-14,  7.9D-14, -3.0D-17, r^2= 5.3D+00
   Bfn.  Coefficient  Atom+Function         Bfn.  Coefficient  Atom+Function  
  ----- ------------  ---------------      ----- ------------  ---------------
    24      2.092465   3 C  s                51     -2.092465   6 C  s         
    17      1.670315   2 C  py               44      1.670315   5 C  py        
     8      1.559609   1 C  py               35      1.559609   4 C  py        
     7     -1.426408   1 C  px               34     -1.426408   4 C  px        
    15     -1.405613   2 C  s                42      1.405613   5 C  s         

 Vector   35  Occ=0.000000D+00  E= 6.857679D-01  Symmetry=b2u
              MO Center= -3.1D-15,  5.3D-16, -5.8D-35, r^2= 5.5D+00
   Bfn.  Coefficient  Atom+Function         Bfn.  Coefficient  Atom+Function  
  ----- ------------  ---------------      ----- ------------  ---------------
    17      0.512466   2 C  py               25     -0.512466   3 C  px        
    44      0.512466   5 C  py               52     -0.512466   6 C  px        
     7      0.375151   1 C  px                8     -0.375151   1 C  py        
    34      0.375151   4 C  px               35     -0.375151   4 C  py        
    13     -0.346092   2 C  py               21      0.346092   3 C  px        


 center of mass
 --------------
 x =   0.00000000 y =   0.00000000 z =   0.00000000

 moments of inertia (a.u.)
 ------------------
         320.062201089014           0.000000000000           0.000000000000
           0.000000000000         320.062201089014           0.000000000000
           0.000000000000           0.000000000000         640.124402178029

  Mulliken analysis of the total density
  --------------------------------------

    Atom       Charge   Shell Charges
 -----------   ------   -------------------------------------------------------
    1 C    6     6.20   2.00  0.70  2.01  0.49  1.01
    2 C    6     6.20   2.00  0.70  2.01  0.49  1.01
    3 C    6     6.20   2.00  0.70  2.01  0.49  1.01
    4 C    6     6.20   2.00  0.70  2.01  0.49  1.01
    5 C    6     6.20   2.00  0.70  2.01  0.49  1.01
    6 C    6     6.20   2.00  0.70  2.01  0.49  1.01
    7 H    1     0.80   0.54  0.26
    8 H    1     0.80   0.54  0.26
    9 H    1     0.80   0.54  0.26
   10 H    1     0.80   0.54  0.26
   11 H    1     0.80   0.54  0.26
   12 H    1     0.80   0.54  0.26

       Multipole analysis of the density wrt the origin
       ------------------------------------------------

     L   x y z        total         open         nuclear
     -   - - -        -----         ----         -------
     0   0 0 0     -0.000000      0.000000     42.000000

     1   1 0 0      0.000000      0.000000      0.000000
     1   0 1 0     -0.000000      0.000000      0.000000
     1   0 0 1     -0.000000      0.000000      0.000000

     2   2 0 0    -23.533107      0.000000    192.878835
     2   1 1 0     -0.000000      0.000000      0.000000
     2   1 0 1     -0.000000      0.000000      0.000000
     2   0 2 0    -23.533107      0.000000    192.878835
     2   0 1 1     -0.000000      0.000000      0.000000
     2   0 0 2    -30.096985      0.000000      0.000000


 Parallel integral file used       6 records with       0 large values


 Task  times  cpu:        0.5s     wall:        0.5s


                                NWChem Input Module
                                -------------------



  Limits (a.u.) specified for the density plot:
  ---------------------------------------------

        From        To      # of spacings
X    -9.44863     9.44863        30
Y    -9.44863     9.44863        30
Z    -9.44863     9.44863        30

  Total number of grid points =                 29791

  1-st set of MOs      : c6h6.movecs
  Output is written to : homo.cube
  Type of picture      : ORBITAL VIEW
  Format used          : Gaussian9x Cube
  Spin                 : ALPHA   
  The orbital  21 is plotted
  Grid minima (bohr)  -9.448633 -9.448633 -9.448633
  Grid maxima (bohr)   9.448633  9.448633  9.448633
  max element   0.20353349842709773     

 Task  times  cpu:        0.0s     wall:        0.0s


                                NWChem Input Module
                                -------------------



  Limits (a.u.) specified for the density plot:
  ---------------------------------------------

        From        To      # of spacings
X    -9.44863     9.44863        30
Y    -9.44863     9.44863        30
Z    -9.44863     9.44863        30

  Total number of grid points =                 29791

  1-st set of MOs      : c6h6.movecs
  Output is written to : lumo.cube
  Type of picture      : ORBITAL VIEW
  Format used          : Gaussian9x Cube
  Spin                 : ALPHA   
  The orbital  22 is plotted
  Grid minima (bohr)  -9.448633 -9.448633 -9.448633
  Grid maxima (bohr)   9.448633  9.448633  9.448633
  max element   0.21536627595135710     

 Task  times  cpu:        0.0s     wall:        0.0s


                                NWChem Input Module
                                -------------------


 Summary of allocated global arrays
-----------------------------------
  No active global arrays


MA_summarize_allocated_blocks: starting scan ...
MA_summarize_allocated_blocks: scan completed: 0 heap blocks, 0 stack blocks
MA usage statistics:

	allocation statistics:
					      heap	     stack
					      ----	     -----
	current number of blocks	         0	         0
	maximum number of blocks	        18	        24
	current total bytes		         0	         0
	maximum total bytes		   2128352	  22510824
	maximum total K-bytes		      2129	     22511
	maximum total M-bytes		         3	        23


                                     CITATION
                                     --------
                Please cite the following reference when publishing
                           results obtained with NWChem:

          E. Apra, E. J. Bylaska, W. A. de Jong, N. Govind, K. Kowalski,
       T. P. Straatsma, M. Valiev, H. J. J. van Dam, Y. Alexeev, J. Anchell,
       V. Anisimov, F. W. Aquino, R. Atta-Fynn, J. Autschbach, N. P. Bauman,
     J. C. Becca, D. E. Bernholdt, K. Bhaskaran-Nair, S. Bogatko, P. Borowski,
         J. Boschen, J. Brabec, A. Bruner, E. Cauet, Y. Chen, G. N. Chuev,
      C. J. Cramer, J. Daily, M. J. O. Deegan, T. H. Dunning Jr., M. Dupuis,
   K. G. Dyall, G. I. Fann, S. A. Fischer, A. Fonari, H. Fruchtl, L. Gagliardi,
      J. Garza, N. Gawande, S. Ghosh, K. Glaesemann, A. W. Gotz, J. Hammond,
       V. Helms, E. D. Hermes, K. Hirao, S. Hirata, M. Jacquelin, L. Jensen,
   B. G. Johnson, H. Jonsson, R. A. Kendall, M. Klemm, R. Kobayashi, V. Konkov,
      S. Krishnamoorthy, M. Krishnan, Z. Lin, R. D. Lins, R. J. Littlefield,
      A. J. Logsdail, K. Lopata, W. Ma, A. V. Marenich, J. Martin del Campo,
   D. Mejia-Rodriguez, J. E. Moore, J. M. Mullin, T. Nakajima, D. R. Nascimento,
    J. A. Nichols, P. J. Nichols, J. Nieplocha, A. Otero-de-la-Roza, B. Palmer,
    A. Panyala, T. Pirojsirikul, B. Peng, R. Peverati, J. Pittner, L. Pollack,
   R. M. Richard, P. Sadayappan, G. C. Schatz, W. A. Shelton, D. W. Silverstein,
   D. M. A. Smith, T. A. Soares, D. Song, M. Swart, H. L. Taylor, G. S. Thomas,
            V. Tipparaju, D. G. Truhlar, K. Tsemekhman, T. Van Voorhis,
      A. Vazquez-Mayagoitia, P. Verma, O. Villa, A. Vishnu, K. D. Vogiatzis,
        D. Wang, J. H. Weare, M. J. Williamson, T. L. Windus, K. Wolinski,
        A. T. Wong, Q. Wu, C. Yang, Q. Yu, M. Zacharias, Z. Zhang, Y. Zhao,
                                and R. J. Harrison
                        "NWChem: Past, present, and future
                         J. Chem. Phys. 152, 184102 (2020)
                               doi:10.1063/5.0004997

                                      AUTHORS
                                      -------
  E. Apra, E. J. Bylaska, N. Govind, K. Kowalski, M. Valiev, D. Mejia-Rodriguez,
       A. Kunitsa, N. P. Bauman, A. Panyala, W. A. de Jong, T. P. Straatsma,
   H. J. J. van Dam, D. Wang, T. L. Windus, J. Hammond, J. Autschbach, A. Woods,
    K. Bhaskaran-Nair, J. Brabec, K. Lopata, S. A. Fischer, S. Krishnamoorthy,
     M. Jacquelin, W. Ma, M. Klemm, O. Villa, Y. Chen, V. Anisimov, F. Aquino,
     S. Hirata, M. T. Hackler, E. Hermes, L. Jensen, J. E. Moore, J. C. Becca,
      V. Konjkov, T. Risthaus, M. Malagoli, A. Marenich, A. Otero-de-la-Roza,
        J. Mullin, P. Nichols, R. Peverati, J. Pittner, Y. Zhao, P.-D. Fan,
        A. Fonari, M. J. Williamson, R. J. Harrison, J. R. Rehr, M. Dupuis,
     D. Silverstein, D. M. A. Smith, J. Nieplocha, V. Tipparaju, M. Krishnan,
     B. E. Van Kuiken, A. Vazquez-Mayagoitia, M. Swart, Q. Wu, T. Van Voorhis,
     A. A. Auer, M. Nooijen, L. D. Crosby, E. Brown, G. Cisneros, G. I. Fann,
   H. Fruchtl, J. Garza, K. Hirao, R. A. Kendall, J. A. Nichols, K. Tsemekhman,
    K. Wolinski, J. Anchell, D. E. Bernholdt, P. Borowski, T. Clark, D. Clerc,
   H. Dachsel, M. J. O. Deegan, K. Dyall, D. Elwood, E. Glendening, M. Gutowski,
   A. C. Hess, J. Jaffe, B. G. Johnson, J. Ju, R. Kobayashi, R. Kutteh, Z. Lin,
   R. Littlefield, X. Long, B. Meng, T. Nakajima, S. Niu, L. Pollack, M. Rosing,
   K. Glaesemann, G. Sandrone, M. Stave, H. Taylor, G. Thomas, J. H. van Lenthe,
                               A. T. Wong, Z. Zhang.

 Total times  cpu:        2.3s     wall:        2.3s
